 Entering Gaussian System, Link 0=g16
 Input=C8H18_opt.gjf
 Output=C8H18_opt.log
 Initial command:
 /home/qingchun/software/g16A_modified_by_qingchun/g16/l1.exe "/scratch/qingchun/gaussian/Gau-2378.inp" -scrdir="/scratch/qingchun/gaussian/"
 Entering Link 1 = /home/qingchun/software/g16A_modified_by_qingchun/g16/l1.exe PID=      2379.
  
 Copyright (c) 1988,1990,1992,1993,1995,1998,2003,2009,2016,
            Gaussian, Inc.  All Rights Reserved.
  
 This is part of the Gaussian(R) 16 program.  It is based on
 the Gaussian(R) 09 system (copyright 2009, Gaussian, Inc.),
 the Gaussian(R) 03 system (copyright 2003, Gaussian, Inc.),
 the Gaussian(R) 98 system (copyright 1998, Gaussian, Inc.),
 the Gaussian(R) 94 system (copyright 1995, Gaussian, Inc.),
 the Gaussian 92(TM) system (copyright 1992, Gaussian, Inc.),
 the Gaussian 90(TM) system (copyright 1990, Gaussian, Inc.),
 the Gaussian 88(TM) system (copyright 1988, Gaussian, Inc.),
 the Gaussian 86(TM) system (copyright 1986, Carnegie Mellon
 University), and the Gaussian 82(TM) system (copyright 1983,
 Carnegie Mellon University). Gaussian is a federally registered
 trademark of Gaussian, Inc.
  
 This software contains proprietary and confidential information,
 including trade secrets, belonging to Gaussian, Inc.
  
 This software is provided under written license and may be
 used, copied, transmitted, or stored only in accord with that
 written license.
  
 The following legend is applicable only to US Government
 contracts under FAR:
  
                    RESTRICTED RIGHTS LEGEND
  
 Use, reproduction and disclosure by the US Government is
 subject to restrictions as set forth in subparagraphs (a)
 and (c) of the Commercial Computer Software - Restricted
 Rights clause in FAR 52.227-19.
  
 Gaussian, Inc.
 340 Quinnipiac St., Bldg. 40, Wallingford CT 06492
  
  
 ---------------------------------------------------------------
 Warning -- This program may not be used in any manner that
 competes with the business of Gaussian, Inc. or will provide
 assistance to any competitor of Gaussian, Inc.  The licensee
 of this program is prohibited from giving any competitor of
 Gaussian, Inc. access to this program.  By using this program,
 the user acknowledges that Gaussian, Inc. is engaged in the
 business of creating and licensing software in the field of
 computational chemistry and represents and warrants to the
 licensee that it is not a competitor of Gaussian, Inc. and that
 it will not use this program in any manner prohibited above.
 ---------------------------------------------------------------
  

 Cite this work as:
 Gaussian 16, Revision A.03,
 M. J. Frisch, G. W. Trucks, H. B. Schlegel, G. E. Scuseria, 
 M. A. Robb, J. R. Cheeseman, G. Scalmani, V. Barone, 
 G. A. Petersson, H. Nakatsuji, X. Li, M. Caricato, A. V. Marenich, 
 J. Bloino, B. G. Janesko, R. Gomperts, B. Mennucci, H. P. Hratchian, 
 J. V. Ortiz, A. F. Izmaylov, J. L. Sonnenberg, D. Williams-Young, 
 F. Ding, F. Lipparini, F. Egidi, J. Goings, B. Peng, A. Petrone, 
 T. Henderson, D. Ranasinghe, V. G. Zakrzewski, J. Gao, N. Rega, 
 G. Zheng, W. Liang, M. Hada, M. Ehara, K. Toyota, R. Fukuda, 
 J. Hasegawa, M. Ishida, T. Nakajima, Y. Honda, O. Kitao, H. Nakai, 
 T. Vreven, K. Throssell, J. A. Montgomery, Jr., J. E. Peralta, 
 F. Ogliaro, M. J. Bearpark, J. J. Heyd, E. N. Brothers, K. N. Kudin, 
 V. N. Staroverov, T. A. Keith, R. Kobayashi, J. Normand, 
 K. Raghavachari, A. P. Rendell, J. C. Burant, S. S. Iyengar, 
 J. Tomasi, M. Cossi, J. M. Millam, M. Klene, C. Adamo, R. Cammi, 
 J. W. Ochterski, R. L. Martin, K. Morokuma, O. Farkas, 
 J. B. Foresman, and D. J. Fox, Gaussian, Inc., Wallingford CT, 2016.
 
 ******************************************
 Gaussian 16:  ES64L-G16RevA.03 25-Dec-2016
                14-Feb-2020 
 ******************************************
 %nprocshared=8
 Will use up to    8 processors via shared memory.
 %mem=30GB
 %chk=C8H18_opt.chk
 ------------------------
 # opt freq b3lyp/cc-pvdz
 ------------------------
 1/18=20,19=15,26=3,38=1/1,3;
 2/9=110,12=2,17=6,18=5,40=1/2;
 3/5=16,11=2,25=1,30=1,71=1,74=-5/1,2,3;
 4//1;
 5/5=2,38=5/2;
 6/7=2,8=2,9=2,10=2,28=1/1;
 7//1,2,3,16;
 1/18=20,19=15,26=3/3(2);
 2/9=110/2;
 99//99;
 2/9=110/2;
 3/5=16,11=2,25=1,30=1,71=1,74=-5/1,2,3;
 4/5=5,16=3,69=1/1;
 5/5=2,38=5/2;
 7//1,2,3,16;
 1/18=20,19=15,26=3/3(-5);
 2/9=110/2;
 6/7=2,8=2,9=2,10=2,19=2,28=1/1;
 99/9=1/99;
 -----
 6-31g
 -----
 Symbolic Z-matrix:
 Charge =  0 Multiplicity = 1
 C                     0.        0.        0. 
 H                     0.        0.        1.10358 
 H                     1.05351   0.       -0.32863 
 H                    -0.4527   -0.94803  -0.333 
 C                    -0.75469   1.21017  -0.55514 
 H                    -0.76784   1.16214  -1.65991 
 H                    -1.81326   1.16213  -0.23871 
 C                    -0.15842   2.55187  -0.11652 
 H                    -0.14476   2.60007   0.98916 
 H                     0.90117   2.60007  -0.43272 
 C                    -0.90692   3.76995  -0.66712 
 H                    -1.96628   3.72065  -0.3509 
 H                    -0.92049   3.72066  -1.77258 
 C                    -0.31103   5.11154  -0.22877 
 H                     0.74843   5.16194  -0.54505 
 H                    -0.29751   5.16194   0.87681 
 C                    -1.05991   6.32965  -0.77966 
 H                    -2.11834   6.27923  -0.46314 
 H                    -1.07289   6.27923  -1.88433 
 C                    -0.45696   7.66456  -0.33612 
 H                     0.59082   7.76083  -0.66895 
 H                    -0.46273   7.76083   0.76324 
 C                    -1.23974   8.85925  -0.91194 
 H                    -2.25393   8.81766  -0.57342 
 H                    -0.79062   9.77251  -0.58156 
 H                    -1.21855   8.81766  -1.98092 
 

 GradGradGradGradGradGradGradGradGradGradGradGradGradGradGradGradGradGrad
 Berny optimization.
 Initialization pass.
                           ----------------------------
                           !    Initial Parameters    !
                           ! (Angstroms and Degrees)  !
 --------------------------                            --------------------------
 ! Name  Definition              Value          Derivative Info.                !
 --------------------------------------------------------------------------------
 ! R1    R(1,2)                  1.1036         estimate D2E/DX2                !
 ! R2    R(1,3)                  1.1036         estimate D2E/DX2                !
 ! R3    R(1,4)                  1.1021         estimate D2E/DX2                !
 ! R4    R(1,5)                  1.5304         estimate D2E/DX2                !
 ! R5    R(5,6)                  1.1059         estimate D2E/DX2                !
 ! R6    R(5,7)                  1.1059         estimate D2E/DX2                !
 ! R7    R(5,8)                  1.5324         estimate D2E/DX2                !
 ! R8    R(8,9)                  1.1068         estimate D2E/DX2                !
 ! R9    R(8,10)                 1.1068         estimate D2E/DX2                !
 ! R10   R(8,11)                 1.532          estimate D2E/DX2                !
 ! R11   R(11,12)                1.1066         estimate D2E/DX2                !
 ! R12   R(11,13)                1.1066         estimate D2E/DX2                !
 ! R13   R(11,14)                1.532          estimate D2E/DX2                !
 ! R14   R(14,15)                1.1068         estimate D2E/DX2                !
 ! R15   R(14,16)                1.1068         estimate D2E/DX2                !
 ! R16   R(14,17)                1.5324         estimate D2E/DX2                !
 ! R17   R(17,18)                1.1059         estimate D2E/DX2                !
 ! R18   R(17,19)                1.1059         estimate D2E/DX2                !
 ! R19   R(17,20)                1.5304         estimate D2E/DX2                !
 ! R20   R(20,21)                1.1036         estimate D2E/DX2                !
 ! R21   R(20,22)                1.1036         estimate D2E/DX2                !
 ! R22   R(20,23)                1.54           estimate D2E/DX2                !
 ! R23   R(23,24)                1.07           estimate D2E/DX2                !
 ! R24   R(23,25)                1.07           estimate D2E/DX2                !
 ! R25   R(23,26)                1.07           estimate D2E/DX2                !
 ! A1    A(2,1,3)              107.3247         estimate D2E/DX2                !
 ! A2    A(2,1,4)              107.587          estimate D2E/DX2                !
 ! A3    A(2,1,5)              111.2681         estimate D2E/DX2                !
 ! A4    A(3,1,4)              107.5871         estimate D2E/DX2                !
 ! A5    A(3,1,5)              111.2682         estimate D2E/DX2                !
 ! A6    A(4,1,5)              111.5948         estimate D2E/DX2                !
 ! A7    A(1,5,6)              109.5047         estimate D2E/DX2                !
 ! A8    A(1,5,7)              109.5047         estimate D2E/DX2                !
 ! A9    A(1,5,8)              113.3683         estimate D2E/DX2                !
 ! A10   A(6,5,7)              105.8178         estimate D2E/DX2                !
 ! A11   A(6,5,8)              109.1838         estimate D2E/DX2                !
 ! A12   A(7,5,8)              109.1838         estimate D2E/DX2                !
 ! A13   A(5,8,9)              109.2008         estimate D2E/DX2                !
 ! A14   A(5,8,10)             109.2008         estimate D2E/DX2                !
 ! A15   A(5,8,11)             113.7766         estimate D2E/DX2                !
 ! A16   A(9,8,10)             105.764          estimate D2E/DX2                !
 ! A17   A(9,8,11)             109.2947         estimate D2E/DX2                !
 ! A18   A(10,8,11)            109.2946         estimate D2E/DX2                !
 ! A19   A(8,11,12)            109.2435         estimate D2E/DX2                !
 ! A20   A(8,11,13)            109.2436         estimate D2E/DX2                !
 ! A21   A(8,11,14)            113.7899         estimate D2E/DX2                !
 ! A22   A(12,11,13)           105.7666         estimate D2E/DX2                !
 ! A23   A(12,11,14)           109.2436         estimate D2E/DX2                !
 ! A24   A(13,11,14)           109.2435         estimate D2E/DX2                !
 ! A25   A(11,14,15)           109.2946         estimate D2E/DX2                !
 ! A26   A(11,14,16)           109.2947         estimate D2E/DX2                !
 ! A27   A(11,14,17)           113.7766         estimate D2E/DX2                !
 ! A28   A(15,14,16)           105.764          estimate D2E/DX2                !
 ! A29   A(15,14,17)           109.2008         estimate D2E/DX2                !
 ! A30   A(16,14,17)           109.2008         estimate D2E/DX2                !
 ! A31   A(14,17,18)           109.1838         estimate D2E/DX2                !
 ! A32   A(14,17,19)           109.1837         estimate D2E/DX2                !
 ! A33   A(14,17,20)           113.3683         estimate D2E/DX2                !
 ! A34   A(18,17,19)           105.8178         estimate D2E/DX2                !
 ! A35   A(18,17,20)           109.5049         estimate D2E/DX2                !
 ! A36   A(19,17,20)           109.5045         estimate D2E/DX2                !
 ! A37   A(17,20,21)           111.2681         estimate D2E/DX2                !
 ! A38   A(17,20,22)           111.2682         estimate D2E/DX2                !
 ! A39   A(17,20,23)           111.5948         estimate D2E/DX2                !
 ! A40   A(21,20,22)           107.3247         estimate D2E/DX2                !
 ! A41   A(21,20,23)           107.5872         estimate D2E/DX2                !
 ! A42   A(22,20,23)           107.5869         estimate D2E/DX2                !
 ! A43   A(20,23,24)           109.4712         estimate D2E/DX2                !
 ! A44   A(20,23,25)           109.4712         estimate D2E/DX2                !
 ! A45   A(20,23,26)           109.4712         estimate D2E/DX2                !
 ! A46   A(24,23,25)           109.4713         estimate D2E/DX2                !
 ! A47   A(24,23,26)           109.4712         estimate D2E/DX2                !
 ! A48   A(25,23,26)           109.4712         estimate D2E/DX2                !
 ! D1    D(2,1,5,6)           -177.9896         estimate D2E/DX2                !
 ! D2    D(2,1,5,7)            -62.3795         estimate D2E/DX2                !
 ! D3    D(2,1,5,8)             59.8155         estimate D2E/DX2                !
 ! D4    D(3,1,5,6)             62.3792         estimate D2E/DX2                !
 ! D5    D(3,1,5,7)            177.9893         estimate D2E/DX2                !
 ! D6    D(3,1,5,8)            -59.8157         estimate D2E/DX2                !
 ! D7    D(4,1,5,6)            -57.8053         estimate D2E/DX2                !
 ! D8    D(4,1,5,7)             57.8048         estimate D2E/DX2                !
 ! D9    D(4,1,5,8)            179.9997         estimate D2E/DX2                !
 ! D10   D(1,5,8,9)            -57.6043         estimate D2E/DX2                !
 ! D11   D(1,5,8,10)            57.6037         estimate D2E/DX2                !
 ! D12   D(1,5,8,11)           179.9997         estimate D2E/DX2                !
 ! D13   D(6,5,8,9)           -179.9775         estimate D2E/DX2                !
 ! D14   D(6,5,8,10)           -64.7696         estimate D2E/DX2                !
 ! D15   D(6,5,8,11)            57.6264         estimate D2E/DX2                !
 ! D16   D(7,5,8,9)             64.769          estimate D2E/DX2                !
 ! D17   D(7,5,8,10)           179.977          estimate D2E/DX2                !
 ! D18   D(7,5,8,11)           -57.627          estimate D2E/DX2                !
 ! D19   D(5,8,11,12)           57.6286         estimate D2E/DX2                !
 ! D20   D(5,8,11,13)          -57.6295         estimate D2E/DX2                !
 ! D21   D(5,8,11,14)          179.9996         estimate D2E/DX2                !
 ! D22   D(9,8,11,12)          -64.7158         estimate D2E/DX2                !
 ! D23   D(9,8,11,13)         -179.9738         estimate D2E/DX2                !
 ! D24   D(9,8,11,14)           57.6552         estimate D2E/DX2                !
 ! D25   D(10,8,11,12)         179.9729         estimate D2E/DX2                !
 ! D26   D(10,8,11,13)          64.7149         estimate D2E/DX2                !
 ! D27   D(10,8,11,14)         -57.6561         estimate D2E/DX2                !
 ! D28   D(8,11,14,15)          57.6552         estimate D2E/DX2                !
 ! D29   D(8,11,14,16)         -57.6561         estimate D2E/DX2                !
 ! D30   D(8,11,14,17)         179.9996         estimate D2E/DX2                !
 ! D31   D(12,11,14,15)       -179.9738         estimate D2E/DX2                !
 ! D32   D(12,11,14,16)         64.7149         estimate D2E/DX2                !
 ! D33   D(12,11,14,17)        -57.6295         estimate D2E/DX2                !
 ! D34   D(13,11,14,15)        -64.7158         estimate D2E/DX2                !
 ! D35   D(13,11,14,16)        179.9729         estimate D2E/DX2                !
 ! D36   D(13,11,14,17)         57.6285         estimate D2E/DX2                !
 ! D37   D(11,14,17,18)         57.6265         estimate D2E/DX2                !
 ! D38   D(11,14,17,19)        -57.627          estimate D2E/DX2                !
 ! D39   D(11,14,17,20)        180.0            estimate D2E/DX2                !
 ! D40   D(15,14,17,18)       -179.9775         estimate D2E/DX2                !
 ! D41   D(15,14,17,19)         64.769          estimate D2E/DX2                !
 ! D42   D(15,14,17,20)        -57.604          estimate D2E/DX2                !
 ! D43   D(16,14,17,18)        -64.7696         estimate D2E/DX2                !
 ! D44   D(16,14,17,19)        179.9769         estimate D2E/DX2                !
 ! D45   D(16,14,17,20)         57.6039         estimate D2E/DX2                !
 ! D46   D(14,17,20,21)         59.8155         estimate D2E/DX2                !
 ! D47   D(14,17,20,22)        -59.8157         estimate D2E/DX2                !
 ! D48   D(14,17,20,23)        180.0            estimate D2E/DX2                !
 ! D49   D(18,17,20,21)       -177.9894         estimate D2E/DX2                !
 ! D50   D(18,17,20,22)         62.3794         estimate D2E/DX2                !
 ! D51   D(18,17,20,23)        -57.8049         estimate D2E/DX2                !
 ! D52   D(19,17,20,21)        -62.3793         estimate D2E/DX2                !
 ! D53   D(19,17,20,22)        177.9895         estimate D2E/DX2                !
 ! D54   D(19,17,20,23)         57.8052         estimate D2E/DX2                !
 ! D55   D(17,20,23,24)         60.0            estimate D2E/DX2                !
 ! D56   D(17,20,23,25)       -179.9999         estimate D2E/DX2                !
 ! D57   D(17,20,23,26)        -60.0            estimate D2E/DX2                !
 ! D58   D(21,20,23,24)       -177.6758         estimate D2E/DX2                !
 ! D59   D(21,20,23,25)        -57.6758         estimate D2E/DX2                !
 ! D60   D(21,20,23,26)         62.3242         estimate D2E/DX2                !
 ! D61   D(22,20,23,24)        -62.324          estimate D2E/DX2                !
 ! D62   D(22,20,23,25)         57.676          estimate D2E/DX2                !
 ! D63   D(22,20,23,26)        177.676          estimate D2E/DX2                !
 --------------------------------------------------------------------------------
 Trust Radius=3.00D-01 FncErr=1.00D-07 GrdErr=1.00D-06 EigMax=2.50D+02 EigMin=1.00D-04
 Number of steps in this run=    146 maximum allowed number of steps=    156.
 GradGradGradGradGradGradGradGradGradGradGradGradGradGradGradGradGradGrad

                          Input orientation:                          
 ---------------------------------------------------------------------
 Center     Atomic      Atomic             Coordinates (Angstroms)
 Number     Number       Type             X           Y           Z
 ---------------------------------------------------------------------
      1          6           0        0.000000    0.000000    0.000000
      2          1           0        0.000000    0.000000    1.103581
      3          1           0        1.053514    0.000000   -0.328631
      4          1           0       -0.452701   -0.948031   -0.332998
      5          6           0       -0.754695    1.210166   -0.555140
      6          1           0       -0.767840    1.162136   -1.659912
      7          1           0       -1.813261    1.162132   -0.238706
      8          6           0       -0.158421    2.551871   -0.116524
      9          1           0       -0.144757    2.600073    0.989156
     10          1           0        0.901170    2.600074   -0.432724
     11          6           0       -0.906921    3.769945   -0.667118
     12          1           0       -1.966281    3.720651   -0.350902
     13          1           0       -0.920487    3.720660   -1.772581
     14          6           0       -0.311032    5.111540   -0.228771
     15          1           0        0.748432    5.161936   -0.545053
     16          1           0       -0.297512    5.161935    0.876813
     17          6           0       -1.059913    6.329654   -0.779658
     18          1           0       -2.118343    6.279229   -0.463142
     19          1           0       -1.072891    6.279234   -1.884326
     20          6           0       -0.456963    7.664559   -0.336118
     21          1           0        0.590819    7.760826   -0.668949
     22          1           0       -0.462725    7.760827    0.763241
     23          6           0       -1.239741    8.859251   -0.911939
     24          1           0       -2.253927    8.817659   -0.573419
     25          1           0       -0.790623    9.772510   -0.581562
     26          1           0       -1.218550    8.817660   -1.980921
 ---------------------------------------------------------------------
                    Distance matrix (angstroms):
                    1          2          3          4          5
     1  C    0.000000
     2  H    1.103581   0.000000
     3  H    1.103580   1.777955   0.000000
     4  H    1.102084   1.779736   1.779737   0.000000
     5  C    1.530440   2.187561   2.187562   2.190516   0.000000
     6  H    2.166898   3.094679   2.537755   2.512532   1.105894
     7  H    2.166898   2.537755   3.094679   2.512529   1.105894
     8  C    2.559438   2.832985   2.832988   3.518917   1.532351
     9  H    2.785635   2.606612   3.151634   3.798942   2.165344
    10  H    2.785631   3.151622   2.606612   3.798942   2.165344
    11  C    3.934468   4.262671   4.262671   4.751552   2.566745
    12  H    4.222871   4.452530   4.791962   4.907936   2.795029
    13  H    4.222872   4.791964   4.452525   4.907942   2.795036
    14  C    5.126102   5.291479   5.291484   6.062123   3.940060
    15  H    5.244312   5.470258   5.175470   6.230520   4.227999
    16  H    5.244320   5.175472   5.470278   6.230522   4.228000
    17  C    6.464967   6.688387   6.688386   7.316618   5.133490
    18  H    6.643086   6.809605   7.036156   7.417856   5.250086
    19  H    6.643084   7.036154   6.809593   7.417857   5.250089
    20  C    7.685522   7.811978   7.811981   8.612591   6.464967
    21  H    7.811976   7.982565   7.782051   8.777584   6.688385
    22  H    7.811983   7.782055   7.982581   8.777587   6.688388
    23  C    8.991936   9.169820   9.169819   9.855829   7.672748
    24  H    9.119216   9.254384   9.420732   9.933323   7.753836
    25  H    9.821673   9.948203   9.948204  10.728745   8.562460
    26  H    9.119213   9.420729   9.254375   9.933322   7.753836
                    6          7          8          9         10
     6  H    0.000000
     7  H    1.764294   0.000000
     8  C    2.164440   2.164440   0.000000
     9  H    3.077898   2.521750   1.106815   0.000000
    10  H    2.521755   3.077898   1.106814   1.765136   0.000000
    11  C    2.793859   2.793864   1.532028   2.166273   2.166272
    12  H    3.113802   2.565545   2.165487   2.523767   3.079718
    13  H    2.565548   3.113821   2.165487   3.079718   2.523760
    14  C    4.225474   4.225472   2.566670   2.796151   2.796157
    15  H    4.420451   4.759680   2.796150   3.116845   2.568868
    16  H    4.759682   4.420441   2.796158   2.568870   3.116867
    17  C    5.250085   5.250090   3.940060   4.228000   4.227999
    18  H    5.425933   5.131094   4.225474   4.420452   4.759681
    19  H    5.131092   5.425951   4.225472   4.759680   4.420439
    20  C    6.643084   6.643085   5.126102   5.244315   5.244317
    21  H    6.809601   7.036154   5.291478   5.470261   5.175469
    22  H    7.036155   6.809597   5.291484   5.175473   5.470276
    23  C    7.747756   7.747761   6.448641   6.632530   6.632529
    24  H    7.873750   7.675501   6.622688   6.748971   6.973722
    25  H    8.677667   8.677670   7.263165   7.370764   7.370764
    26  H    7.675495   7.873760   6.622685   6.973720   6.748963
                   11         12         13         14         15
    11  C    0.000000
    12  H    1.106646   0.000000
    13  H    1.106645   1.764896   0.000000
    14  C    1.532028   2.165488   2.165487   0.000000
    15  H    2.166272   3.079718   2.523766   1.106815   0.000000
    16  H    2.166273   2.523761   3.079718   1.106814   1.765135
    17  C    2.566745   2.795037   2.795029   1.532351   2.165344
    18  H    2.793860   2.565549   3.113803   2.164440   3.077898
    19  H    2.793863   3.113821   2.565544   2.164440   2.521751
    20  C    3.934468   4.222874   4.222869   2.559438   2.785633
    21  H    4.262670   4.791965   4.452526   2.832985   2.606611
    22  H    4.262672   4.452529   4.791961   2.832988   3.151630
    23  C    5.106049   5.219945   5.219937   3.921039   4.213974
    24  H    5.225191   5.109965   5.403282   4.198683   4.730674
    25  H    6.004301   6.169309   6.169302   4.698841   4.860805
    26  H    5.225191   5.403292   5.109957   4.198683   4.392614
                   16         17         18         19         20
    16  H    0.000000
    17  C    2.165344   0.000000
    18  H    2.521755   1.105893   0.000000
    19  H    3.077898   1.105894   1.764294   0.000000
    20  C    2.785633   1.530440   2.166900   2.166897   0.000000
    21  H    3.151626   2.187561   3.094680   2.537752   1.103581
    22  H    2.606613   2.187561   2.537758   3.094678   1.103580
    23  C    4.213973   2.539428   2.762222   2.762220   1.540000
    24  H    4.392613   2.767377   2.544439   3.091427   2.148263
    25  H    4.860804   3.459049   3.738968   3.738964   2.148263
    26  H    4.730674   2.767377   3.091426   2.544436   2.148263
                   21         22         23         24         25
    21  H    0.000000
    22  H    1.777955   0.000000
    23  C    2.148611   2.148608   0.000000
    24  H    3.036215   2.472237   1.070000   0.000000
    25  H    2.441904   2.441901   1.070000   1.747303   0.000000
    26  H    2.472242   3.036213   1.070000   1.747303   1.747303
                   26
    26  H    0.000000
 Stoichiometry    C8H18
 Framework group  C1[X(C8H18)]
 Deg. of freedom    72
 Full point group                 C1      NOp   1
 Largest Abelian subgroup         C1      NOp   1
 Largest concise Abelian subgroup C1      NOp   1
                         Standard orientation:                         
 ---------------------------------------------------------------------
 Center     Atomic      Atomic             Coordinates (Angstroms)
 Number     Number       Type             X           Y           Z
 ---------------------------------------------------------------------
      1          6           0       -4.493735    0.253216    0.000006
      2          1           0       -4.567459    0.902977   -0.888963
      3          1           0       -4.567459    0.902954    0.888992
      4          1           0       -5.372363   -0.412068   -0.000004
      5          6           0       -3.185659   -0.541255   -0.000005
      6          1           0       -3.158386   -1.207653    0.882135
      7          1           0       -3.158389   -1.207634   -0.882159
      8          6           0       -1.935962    0.345512    0.000002
      9          1           0       -1.963173    1.012880   -0.882562
     10          1           0       -1.963174    1.012868    0.882574
     11          6           0       -0.620895   -0.440432   -0.000002
     12          1           0       -0.594791   -1.107716   -0.882450
     13          1           0       -0.594785   -1.107715    0.882446
     14          6           0        0.628745    0.445857   -0.000006
     15          1           0        0.603730    1.113311    0.882557
     16          1           0        0.603734    1.113300   -0.882578
     17          6           0        1.943906   -0.340560    0.000001
     18          1           0        1.968783   -1.007051   -0.882138
     19          1           0        1.968783   -1.007033    0.882156
     20          6           0        3.185911    0.553683   -0.000003
     21          1           0        3.208641    1.207214    0.888970
     22          1           0        3.208647    1.207199   -0.888985
     23          6           0        4.482544   -0.277186    0.000005
     24          1           0        4.510709   -0.894314   -0.873643
     25          1           0        5.327122    0.379767    0.000003
     26          1           0        4.510706   -0.894303    0.873660
 ---------------------------------------------------------------------
 Rotational constants (GHZ):          10.6343706           0.4869119           0.4766342
 Standard basis: CC-pVDZ (5D, 7F)
 There are   210 symmetry adapted cartesian basis functions of A   symmetry.
 There are   202 symmetry adapted basis functions of A   symmetry.
   202 basis functions,   390 primitive gaussians,   210 cartesian basis functions
    33 alpha electrons       33 beta electrons
       nuclear repulsion energy       373.4510620235 Hartrees.
 NAtoms=   26 NActive=   26 NUniq=   26 SFac= 1.00D+00 NAtFMM=   60 NAOKFM=F Big=F
 Integral buffers will be    131072 words long.
 Raffenetti 2 integral format.
 Two-electron integral symmetry is turned on.
 One-electron integrals computed using PRISM.
 NBasis=   202 RedAO= T EigKep=  1.77D-03  NBF=   202
 NBsUse=   202 1.00D-06 EigRej= -1.00D+00 NBFU=   202
 ExpMin= 1.22D-01 ExpMax= 6.67D+03 ExpMxC= 2.28D+02 IAcc=3 IRadAn=         5 AccDes= 0.00D+00
 Harris functional with IExCor=  402 and IRadAn=       5 diagonalized for initial guess.
 HarFok:  IExCor=  402 AccDes= 0.00D+00 IRadAn=         5 IDoV= 1 UseB2=F ITyADJ=14
 ICtDFT=  3500011 ScaDFX=  1.000000  1.000000  1.000000  1.000000
 FoFCou: FMM=F IPFlag=           0 FMFlag=      100000 FMFlg1=           0
         NFxFlg=           0 DoJE=T BraDBF=F KetDBF=T FulRan=T
         wScrn=  0.000000 ICntrl=       500 IOpCl=  0 I1Cent=   200000004 NGrid=           0
         NMat0=    1 NMatS0=      1 NMatT0=    0 NMatD0=    1 NMtDS0=    0 NMtDT0=    0
 Petite list used in FoFCou.
 Requested convergence on RMS density matrix=1.00D-08 within 128 cycles.
 Requested convergence on MAX density matrix=1.00D-06.
 Requested convergence on             energy=1.00D-06.
 No special actions if energy rises.
 Integral accuracy reduced to 1.0D-05 until final iterations.
 Initial convergence to 1.0D-05 achieved.  Increase integral accuracy.
 SCF Done:  E(RB3LYP) =  -315.713969820     A.U. after   11 cycles
            NFock= 11  Conv=0.68D-08     -V/T= 2.0086

 **********************************************************************

            Population analysis using the SCF density.

 **********************************************************************

 Orbital symmetries:
       Occupied  (A) (A) (A) (A) (A) (A) (A) (A) (A) (A) (A) (A)
                 (A) (A) (A) (A) (A) (A) (A) (A) (A) (A) (A) (A)
                 (A) (A) (A) (A) (A) (A) (A) (A) (A)
       Virtual   (A) (A) (A) (A) (A) (A) (A) (A) (A) (A) (A) (A)
                 (A) (A) (A) (A) (A) (A) (A) (A) (A) (A) (A) (A)
                 (A) (A) (A) (A) (A) (A) (A) (A) (A) (A) (A) (A)
                 (A) (A) (A) (A) (A) (A) (A) (A) (A) (A) (A) (A)
                 (A) (A) (A) (A) (A) (A) (A) (A) (A) (A) (A) (A)
                 (A) (A) (A) (A) (A) (A) (A) (A) (A) (A) (A) (A)
                 (A) (A) (A) (A) (A) (A) (A) (A) (A) (A) (A) (A)
                 (A) (A) (A) (A) (A) (A) (A) (A) (A) (A) (A) (A)
                 (A) (A) (A) (A) (A) (A) (A) (A) (A) (A) (A) (A)
                 (A) (A) (A) (A) (A) (A) (A) (A) (A) (A) (A) (A)
                 (A) (A) (A) (A) (A) (A) (A) (A) (A) (A) (A) (A)
                 (A) (A) (A) (A) (A) (A) (A) (A) (A) (A) (A) (A)
                 (A) (A) (A) (A) (A) (A) (A) (A) (A) (A) (A) (A)
                 (A) (A) (A) (A) (A) (A) (A) (A) (A) (A) (A) (A)
                 (A)
 The electronic state is 1-A.
 Alpha  occ. eigenvalues --  -10.17988 -10.17834 -10.17740 -10.17733 -10.17716
 Alpha  occ. eigenvalues --  -10.17677 -10.17558 -10.16512  -0.80772  -0.78491
 Alpha  occ. eigenvalues --   -0.74757  -0.69820  -0.64136  -0.59018  -0.57167
 Alpha  occ. eigenvalues --   -0.56844  -0.47896  -0.45909  -0.43566  -0.42771
 Alpha  occ. eigenvalues --   -0.41640  -0.41042  -0.39018  -0.38110  -0.35478
 Alpha  occ. eigenvalues --   -0.35334  -0.34697  -0.33043  -0.32979  -0.32083
 Alpha  occ. eigenvalues --   -0.31895  -0.31651  -0.29957
 Alpha virt. eigenvalues --    0.06008   0.06549   0.07917   0.07960   0.08399
 Alpha virt. eigenvalues --    0.10557   0.10796   0.11138   0.13945   0.14520
 Alpha virt. eigenvalues --    0.14684   0.15773   0.15787   0.16410   0.16696
 Alpha virt. eigenvalues --    0.16865   0.18770   0.19282   0.20075   0.22165
 Alpha virt. eigenvalues --    0.23197   0.23607   0.26402   0.28242   0.28378
 Alpha virt. eigenvalues --    0.38594   0.40719   0.41152   0.41571   0.41705
 Alpha virt. eigenvalues --    0.42780   0.43271   0.45159   0.49599   0.50235
 Alpha virt. eigenvalues --    0.51689   0.52873   0.58094   0.60472   0.61008
 Alpha virt. eigenvalues --    0.62249   0.63875   0.63981   0.64215   0.64537
 Alpha virt. eigenvalues --    0.65122   0.65899   0.66232   0.66491   0.66894
 Alpha virt. eigenvalues --    0.67208   0.67319   0.67418   0.67639   0.69229
 Alpha virt. eigenvalues --    0.69739   0.70371   0.70696   0.72204   0.72396
 Alpha virt. eigenvalues --    0.72726   0.74140   0.75043   0.75153   0.80764
 Alpha virt. eigenvalues --    0.82892   0.86360   0.90114   0.90378   0.93946
 Alpha virt. eigenvalues --    1.01716   1.09807   1.16398   1.17414   1.20113
 Alpha virt. eigenvalues --    1.20452   1.21447   1.21607   1.22903   1.23333
 Alpha virt. eigenvalues --    1.23972   1.24388   1.26562   1.32373   1.34065
 Alpha virt. eigenvalues --    1.39489   1.42246   1.42655   1.43739   1.45531
 Alpha virt. eigenvalues --    1.46535   1.52139   1.57515   1.59527   1.61563
 Alpha virt. eigenvalues --    1.61631   1.62073   1.62099   1.63305   1.64301
 Alpha virt. eigenvalues --    1.65071   1.65142   1.65721   1.65800   1.66461
 Alpha virt. eigenvalues --    1.69224   1.69282   1.69498   1.70943   1.70968
 Alpha virt. eigenvalues --    1.71631   1.71671   1.72538   1.72950   1.73012
 Alpha virt. eigenvalues --    1.73581   1.75942   1.75987   1.76571   1.78903
 Alpha virt. eigenvalues --    1.79603   1.80504   1.81432   1.82862   1.87244
 Alpha virt. eigenvalues --    1.89554   1.90347   1.94804   1.97004   1.98088
 Alpha virt. eigenvalues --    2.01378   2.02944   2.05977   2.06428   2.11209
 Alpha virt. eigenvalues --    2.13572   2.15623   2.17388   2.20357   2.20580
 Alpha virt. eigenvalues --    2.23549   2.25981   2.27096   2.29257   2.30012
 Alpha virt. eigenvalues --    2.30811   2.31306   2.33233   2.33821   2.34380
 Alpha virt. eigenvalues --    2.34976   2.36393   2.41206   2.41635   2.44078
 Alpha virt. eigenvalues --    2.45515   2.49941   2.51039   2.51205   2.51981
 Alpha virt. eigenvalues --    2.57498   2.59313   2.59316   2.62602   2.66975
 Alpha virt. eigenvalues --    2.67101   2.69416   2.78111   2.79286
          Condensed to atoms (all electrons):
               1          2          3          4          5          6
     1  C    4.511568   0.386220   0.386220   0.374106   0.443044  -0.026436
     2  H    0.386220   0.683492  -0.032447  -0.031023  -0.023144   0.009002
     3  H    0.386220  -0.032447   0.683492  -0.031023  -0.023144  -0.008777
     4  H    0.374106  -0.031023  -0.031023   0.691376  -0.009058  -0.005090
     5  C    0.443044  -0.023144  -0.023144  -0.009058   4.568605   0.369105
     6  H   -0.026436   0.009002  -0.008777  -0.005090   0.369105   0.728149
     7  H   -0.026436  -0.008777   0.009002  -0.005090   0.369105  -0.044506
     8  C   -0.040821  -0.004836  -0.004836   0.004799   0.440238  -0.025760
     9  H   -0.004408   0.007097  -0.001812   0.000006  -0.029586   0.010360
    10  H   -0.004408  -0.001812   0.007097   0.000006  -0.029586  -0.011544
    11  C    0.004264   0.000391   0.000391  -0.000316  -0.034669  -0.004237
    12  H    0.000241  -0.000032   0.000041   0.000004  -0.004803  -0.002177
    13  H    0.000241   0.000041  -0.000032   0.000004  -0.004803   0.007805
    14  C   -0.000208   0.000003   0.000003   0.000006   0.003898   0.000320
    15  H    0.000005   0.000003  -0.000006   0.000000   0.000273  -0.000033
    16  H    0.000005  -0.000006   0.000003   0.000000   0.000273   0.000039
    17  C    0.000002   0.000000   0.000000   0.000000  -0.000175   0.000010
    18  H    0.000000   0.000000   0.000000   0.000000   0.000007   0.000003
    19  H    0.000000   0.000000   0.000000   0.000000   0.000007  -0.000008
    20  C    0.000000   0.000000   0.000000   0.000000   0.000002   0.000000
    21  H    0.000000   0.000000   0.000000   0.000000   0.000000   0.000000
    22  H    0.000000   0.000000   0.000000   0.000000   0.000000   0.000000
    23  C    0.000000   0.000000   0.000000   0.000000   0.000000   0.000000
    24  H    0.000000   0.000000   0.000000   0.000000   0.000000   0.000000
    25  H    0.000000   0.000000   0.000000   0.000000   0.000000   0.000000
    26  H    0.000000   0.000000   0.000000   0.000000   0.000000   0.000000
               7          8          9         10         11         12
     1  C   -0.026436  -0.040821  -0.004408  -0.004408   0.004264   0.000241
     2  H   -0.008777  -0.004836   0.007097  -0.001812   0.000391  -0.000032
     3  H    0.009002  -0.004836  -0.001812   0.007097   0.000391   0.000041
     4  H   -0.005090   0.004799   0.000006   0.000006  -0.000316   0.000004
     5  C    0.369105   0.440238  -0.029586  -0.029586  -0.034669  -0.004803
     6  H   -0.044506  -0.025760   0.010360  -0.011544  -0.004237  -0.002177
     7  H    0.728148  -0.025760  -0.011544   0.010360  -0.004237   0.007805
     8  C   -0.025760   4.596915   0.366265   0.366265   0.428456  -0.026574
     9  H   -0.011544   0.366265   0.734665  -0.046168  -0.025115  -0.011502
    10  H    0.010360   0.366265  -0.046168   0.734665  -0.025115   0.010358
    11  C   -0.004237   0.428456  -0.025115  -0.025115   4.598549   0.364290
    12  H    0.007805  -0.026574  -0.011502   0.010358   0.364290   0.734710
    13  H   -0.002177  -0.026574   0.010358  -0.011502   0.364290  -0.046052
    14  C    0.000320  -0.034343  -0.004521  -0.004521   0.428633  -0.025987
    15  H    0.000039  -0.004808  -0.002176   0.007707  -0.025940   0.010346
    16  H   -0.000033  -0.004808   0.007707  -0.002176  -0.025939  -0.011542
    17  C    0.000010   0.003688   0.000337   0.000337  -0.034387  -0.004764
    18  H   -0.000008   0.000322  -0.000032   0.000040  -0.004456   0.007799
    19  H    0.000003   0.000322   0.000040  -0.000032  -0.004456  -0.002203
    20  C    0.000000  -0.000183   0.000006   0.000006   0.004040   0.000269
    21  H    0.000000   0.000008   0.000003  -0.000007   0.000287   0.000034
    22  H    0.000000   0.000008  -0.000007   0.000003   0.000287  -0.000031
    23  C    0.000000   0.000002   0.000000   0.000000  -0.000209   0.000005
    24  H    0.000000   0.000000   0.000000   0.000000   0.000004  -0.000007
    25  H    0.000000   0.000000   0.000000   0.000000   0.000006   0.000000
    26  H    0.000000   0.000000   0.000000   0.000000   0.000004   0.000003
              13         14         15         16         17         18
     1  C    0.000241  -0.000208   0.000005   0.000005   0.000002   0.000000
     2  H    0.000041   0.000003   0.000003  -0.000006   0.000000   0.000000
     3  H   -0.000032   0.000003  -0.000006   0.000003   0.000000   0.000000
     4  H    0.000004   0.000006   0.000000   0.000000   0.000000   0.000000
     5  C   -0.004803   0.003898   0.000273   0.000273  -0.000175   0.000007
     6  H    0.007805   0.000320  -0.000033   0.000039   0.000010   0.000003
     7  H   -0.002177   0.000320   0.000039  -0.000033   0.000010  -0.000008
     8  C   -0.026574  -0.034343  -0.004808  -0.004808   0.003688   0.000322
     9  H    0.010358  -0.004521  -0.002176   0.007707   0.000337  -0.000032
    10  H   -0.011502  -0.004521   0.007707  -0.002176   0.000337   0.000040
    11  C    0.364290   0.428633  -0.025940  -0.025939  -0.034387  -0.004456
    12  H   -0.046052  -0.025987   0.010346  -0.011542  -0.004764   0.007799
    13  H    0.734710  -0.025987  -0.011542   0.010346  -0.004764  -0.002203
    14  C   -0.025987   4.600660   0.364427   0.364428   0.426857  -0.025519
    15  H   -0.011542   0.364427   0.734533  -0.046152  -0.026132   0.010404
    16  H    0.010346   0.364428  -0.046152   0.734533  -0.026132  -0.011605
    17  C   -0.004764   0.426857  -0.026132  -0.026132   4.589182   0.366710
    18  H   -0.002203  -0.025519   0.010404  -0.011605   0.366710   0.734642
    19  H    0.007799  -0.025519  -0.011605   0.010404   0.366709  -0.046430
    20  C    0.000269  -0.037660  -0.004777  -0.004776   0.442245  -0.028938
    21  H   -0.000031  -0.004321   0.007320  -0.002047  -0.023507   0.010001
    22  H    0.000034  -0.004321  -0.002047   0.007320  -0.023507  -0.011343
    23  C    0.000005   0.004439   0.000227   0.000227  -0.039160  -0.004851
    24  H    0.000003   0.000477   0.000050  -0.000041  -0.004431   0.007366
    25  H    0.000000  -0.000369   0.000006   0.000006   0.004655   0.000083
    26  H   -0.000007   0.000477  -0.000041   0.000050  -0.004431  -0.002060
              19         20         21         22         23         24
     1  C    0.000000   0.000000   0.000000   0.000000   0.000000   0.000000
     2  H    0.000000   0.000000   0.000000   0.000000   0.000000   0.000000
     3  H    0.000000   0.000000   0.000000   0.000000   0.000000   0.000000
     4  H    0.000000   0.000000   0.000000   0.000000   0.000000   0.000000
     5  C    0.000007   0.000002   0.000000   0.000000   0.000000   0.000000
     6  H   -0.000008   0.000000   0.000000   0.000000   0.000000   0.000000
     7  H    0.000003   0.000000   0.000000   0.000000   0.000000   0.000000
     8  C    0.000322  -0.000183   0.000008   0.000008   0.000002   0.000000
     9  H    0.000040   0.000006   0.000003  -0.000007   0.000000   0.000000
    10  H   -0.000032   0.000006  -0.000007   0.000003   0.000000   0.000000
    11  C   -0.004456   0.004040   0.000287   0.000287  -0.000209   0.000004
    12  H   -0.002203   0.000269   0.000034  -0.000031   0.000005  -0.000007
    13  H    0.007799   0.000269  -0.000031   0.000034   0.000005   0.000003
    14  C   -0.025519  -0.037660  -0.004321  -0.004321   0.004439   0.000477
    15  H   -0.011605  -0.004777   0.007320  -0.002047   0.000227   0.000050
    16  H    0.010404  -0.004776  -0.002047   0.007320   0.000227  -0.000041
    17  C    0.366709   0.442245  -0.023507  -0.023507  -0.039160  -0.004431
    18  H   -0.046430  -0.028938   0.010001  -0.011343  -0.004851   0.007366
    19  H    0.734642  -0.028938  -0.011343   0.010001  -0.004851  -0.002060
    20  C   -0.028938   4.579204   0.369198   0.369198   0.440202  -0.023205
    21  H   -0.011343   0.369198   0.726631  -0.044365  -0.026210   0.009559
    22  H    0.010001   0.369198  -0.044365   0.726632  -0.026210  -0.009331
    23  C   -0.004851   0.440202  -0.026210  -0.026210   4.466934   0.391156
    24  H   -0.002060  -0.023205   0.009559  -0.009331   0.391156   0.683756
    25  H    0.000083  -0.007928  -0.005174  -0.005174   0.375585  -0.030524
    26  H    0.007366  -0.023205  -0.009331   0.009559   0.391156  -0.031360
              25         26
     1  C    0.000000   0.000000
     2  H    0.000000   0.000000
     3  H    0.000000   0.000000
     4  H    0.000000   0.000000
     5  C    0.000000   0.000000
     6  H    0.000000   0.000000
     7  H    0.000000   0.000000
     8  C    0.000000   0.000000
     9  H    0.000000   0.000000
    10  H    0.000000   0.000000
    11  C    0.000006   0.000004
    12  H    0.000000   0.000003
    13  H    0.000000  -0.000007
    14  C   -0.000369   0.000477
    15  H    0.000006  -0.000041
    16  H    0.000006   0.000050
    17  C    0.004655  -0.004431
    18  H    0.000083  -0.002060
    19  H    0.000083   0.007366
    20  C   -0.007928  -0.023205
    21  H   -0.005174  -0.009331
    22  H   -0.005174   0.009559
    23  C    0.375585   0.391156
    24  H   -0.030524  -0.031360
    25  H    0.697004  -0.030524
    26  H   -0.030524   0.683756
 Mulliken charges:
               1
     1  C   -0.003198
     2  H    0.015829
     3  H    0.015829
     4  H    0.011292
     5  C   -0.035588
     6  H    0.003775
     7  H    0.003775
     8  C   -0.007989
     9  H    0.000029
    10  H    0.000029
    11  C   -0.004817
    12  H   -0.000231
    13  H   -0.000231
    14  C   -0.001670
    15  H   -0.000082
    16  H   -0.000082
    17  C   -0.009351
    18  H    0.000067
    19  H    0.000067
    20  C   -0.045032
    21  H    0.003294
    22  H    0.003294
    23  C    0.031553
    24  H    0.008588
    25  H    0.002263
    26  H    0.008588
 Sum of Mulliken charges =   0.00000
 Mulliken charges with hydrogens summed into heavy atoms:
               1
     1  C    0.039752
     5  C   -0.028037
     8  C   -0.007932
    11  C   -0.005280
    14  C   -0.001834
    17  C   -0.009217
    20  C   -0.038444
    23  C    0.050992
 Electronic spatial extent (au):  <R**2>=           2443.4405
 Charge=              0.0000 electrons
 Dipole moment (field-independent basis, Debye):
    X=              0.0407    Y=             -0.0084    Z=              0.0000  Tot=              0.0416
 Quadrupole moment (field-independent basis, Debye-Ang):
   XX=            -56.5735   YY=            -55.8350   ZZ=            -54.2943
   XY=              0.6153   XZ=              0.0000   YZ=              0.0000
 Traceless Quadrupole moment (field-independent basis, Debye-Ang):
   XX=             -1.0059   YY=             -0.2674   ZZ=              1.2733
   XY=              0.6153   XZ=              0.0000   YZ=              0.0000
 Octapole moment (field-independent basis, Debye-Ang**2):
  XXX=              0.2963  YYY=             -0.1585  ZZZ=              0.0000  XYY=              0.3279
  XXY=              1.0826  XXZ=             -0.0001  XZZ=              0.7894  YZZ=              0.0059
  YYZ=              0.0000  XYZ=              0.0000
 Hexadecapole moment (field-independent basis, Debye-Ang**3):
 XXXX=          -3187.3894 YYYY=           -195.6539 ZZZZ=           -115.7212 XXXY=             32.3212
 XXXZ=              0.0000 YYYX=              0.6306 YYYZ=              0.0000 ZZZX=              0.0000
 ZZZY=              0.0000 XXYY=           -553.7802 XXZZ=           -532.8125 YYZZ=            -48.1177
 XXYZ=              0.0001 YYXZ=              0.0000 ZZXY=             -1.8564
 N-N= 3.734510620235D+02 E-N=-1.475787855871D+03  KE= 3.130336745445D+02
 Calling FoFJK, ICntrl=      2127 FMM=F ISym2X=0 I1Cent= 0 IOpClX= 0 NMat=1 NMatS=1 NMatT=0.
 ***** Axes restored to original set *****
 -------------------------------------------------------------------
 Center     Atomic                   Forces (Hartrees/Bohr)
 Number     Number              X              Y              Z
 -------------------------------------------------------------------
      1        6          -0.000011329   -0.000026628   -0.000007477
      2        1           0.000001668    0.000002430   -0.000019993
      3        1          -0.000018247    0.000002424    0.000007294
      4        1           0.000010215    0.000006393    0.000007331
      5        6           0.000010464   -0.000050518    0.000007348
      6        1           0.000002420   -0.000001024    0.000018045
      7        1           0.000017813   -0.000001055   -0.000003020
      8        6          -0.000043355   -0.000053350   -0.000031814
      9        1           0.000001844    0.000012842   -0.000023740
     10        1          -0.000021946    0.000012775    0.000008815
     11        6           0.000160346   -0.000186241    0.000118493
     12        1          -0.000009721   -0.000015615   -0.000003909
     13        1          -0.000006594   -0.000015725   -0.000008453
     14        6          -0.000247539   -0.000959182   -0.000182123
     15        1          -0.000206098   -0.000052718    0.000050626
     16        1          -0.000013030   -0.000052844   -0.000211785
     17        6           0.004859914   -0.002688333    0.003573644
     18        1          -0.000287456    0.000681671    0.000299578
     19        1           0.000200123    0.000681375   -0.000362906
     20        6          -0.007259303    0.008488667   -0.005339912
     21        1           0.001788597   -0.004256008    0.001476071
     22        1           0.001941843   -0.004256163    0.001268577
     23        6           0.016692344   -0.022262258    0.012278836
     24        1          -0.022309174    0.002054912    0.005118286
     25        1           0.006502664    0.020879251    0.004783495
     26        1          -0.001756464    0.002054924   -0.022821305
 -------------------------------------------------------------------
 Cartesian Forces:  Max     0.022821305 RMS     0.005914675

 GradGradGradGradGradGradGradGradGradGradGradGradGradGradGradGradGradGrad
 Berny optimization.
 FormGI is forming the generalized inverse of G from B-inverse, IUseBI=4.
 Internal  Forces:  Max     0.022685018 RMS     0.003548739
 Search for a local minimum.
 Step number   1 out of a maximum of  146
 All quantities printed in internal units (Hartrees-Bohrs-Radians)
 Mixed Optimization -- RFO/linear search
 Second derivative matrix not updated -- first step.
 ITU=  0
     Eigenvalues ---    0.00237   0.00338   0.00338   0.00342   0.00342
     Eigenvalues ---    0.00363   0.00363   0.03382   0.03382   0.03383
     Eigenvalues ---    0.03427   0.03427   0.03610   0.04773   0.04773
     Eigenvalues ---    0.04775   0.04789   0.04789   0.04794   0.05427
     Eigenvalues ---    0.05478   0.05720   0.05720   0.08128   0.08475
     Eigenvalues ---    0.08475   0.08538   0.08538   0.08541   0.12031
     Eigenvalues ---    0.12308   0.12308   0.12355   0.12355   0.12357
     Eigenvalues ---    0.16000   0.16000   0.16000   0.16000   0.16000
     Eigenvalues ---    0.16000   0.21894   0.21894   0.21902   0.21902
     Eigenvalues ---    0.21902   0.21907   0.28519   0.29207   0.29207
     Eigenvalues ---    0.29237   0.29237   0.29383   0.29383   0.32940
     Eigenvalues ---    0.32940   0.32940   0.32940   0.32958   0.32958
     Eigenvalues ---    0.33039   0.33039   0.33039   0.33039   0.33289
     Eigenvalues ---    0.33289   0.33289   0.33289   0.33453   0.37230
     Eigenvalues ---    0.37230   0.37230
 RFO step:  Lambda=-5.57104393D-03 EMin= 2.36824222D-03
 Linear search not attempted -- first point.
 Iteration  1 RMS(Cart)=  0.01949528 RMS(Int)=  0.00035215
 Iteration  2 RMS(Cart)=  0.00034051 RMS(Int)=  0.00022743
 Iteration  3 RMS(Cart)=  0.00000051 RMS(Int)=  0.00022743
 Variable       Old X    -DE/DX   Delta X   Delta X   Delta X     New X
                                 (Linear)    (Quad)   (Total)
    R1        2.08547  -0.00002   0.00000  -0.00006  -0.00006   2.08541
    R2        2.08546  -0.00002   0.00000  -0.00006  -0.00006   2.08541
    R3        2.08264  -0.00001   0.00000  -0.00004  -0.00004   2.08260
    R4        2.89211   0.00000   0.00000   0.00000   0.00000   2.89211
    R5        2.08984  -0.00002   0.00000  -0.00005  -0.00005   2.08978
    R6        2.08984  -0.00002   0.00000  -0.00005  -0.00005   2.08978
    R7        2.89572   0.00005   0.00000   0.00017   0.00017   2.89589
    R8        2.09158  -0.00002   0.00000  -0.00007  -0.00007   2.09151
    R9        2.09158  -0.00002   0.00000  -0.00007  -0.00007   2.09151
   R10        2.89511   0.00004   0.00000   0.00013   0.00013   2.89524
   R11        2.09126   0.00001   0.00000   0.00003   0.00003   2.09128
   R12        2.09126   0.00001   0.00000   0.00003   0.00003   2.09128
   R13        2.89511   0.00022   0.00000   0.00073   0.00073   2.89584
   R14        2.09158  -0.00021   0.00000  -0.00064  -0.00064   2.09094
   R15        2.09158  -0.00021   0.00000  -0.00064  -0.00064   2.09094
   R16        2.89572   0.00082   0.00000   0.00274   0.00274   2.89846
   R17        2.08984   0.00033   0.00000   0.00098   0.00098   2.09082
   R18        2.08984   0.00033   0.00000   0.00098   0.00098   2.09082
   R19        2.89211  -0.00031   0.00000  -0.00105  -0.00105   2.89106
   R20        2.08547   0.00088   0.00000   0.00260   0.00260   2.08807
   R21        2.08546   0.00088   0.00000   0.00261   0.00261   2.08807
   R22        2.91018   0.00280   0.00000   0.00962   0.00962   2.91980
   R23        2.02201   0.02268   0.00000   0.06003   0.06003   2.08204
   R24        2.02201   0.02203   0.00000   0.05829   0.05829   2.08030
   R25        2.02201   0.02269   0.00000   0.06003   0.06003   2.08204
    A1        1.87317   0.00000   0.00000  -0.00003  -0.00003   1.87314
    A2        1.87775   0.00000   0.00000   0.00000   0.00000   1.87775
    A3        1.94199   0.00000   0.00000  -0.00003  -0.00003   1.94196
    A4        1.87775   0.00000   0.00000   0.00000   0.00000   1.87775
    A5        1.94200   0.00000   0.00000  -0.00003  -0.00003   1.94196
    A6        1.94770   0.00001   0.00000   0.00010   0.00010   1.94779
    A7        1.91122  -0.00001   0.00000  -0.00006  -0.00006   1.91116
    A8        1.91122  -0.00001   0.00000  -0.00006  -0.00006   1.91116
    A9        1.97865   0.00004   0.00000   0.00017   0.00017   1.97882
   A10        1.84687   0.00001   0.00000   0.00000   0.00000   1.84687
   A11        1.90562  -0.00001   0.00000  -0.00003  -0.00003   1.90559
   A12        1.90562  -0.00001   0.00000  -0.00003  -0.00003   1.90559
   A13        1.90591  -0.00001   0.00000   0.00002   0.00002   1.90593
   A14        1.90591  -0.00001   0.00000   0.00001   0.00001   1.90593
   A15        1.98578   0.00007   0.00000   0.00036   0.00036   1.98614
   A16        1.84593   0.00001   0.00000  -0.00008  -0.00008   1.84585
   A17        1.90755  -0.00003   0.00000  -0.00017  -0.00017   1.90738
   A18        1.90755  -0.00003   0.00000  -0.00017  -0.00017   1.90738
   A19        1.90666  -0.00004   0.00000  -0.00021  -0.00022   1.90644
   A20        1.90666  -0.00004   0.00000  -0.00022  -0.00022   1.90644
   A21        1.98601   0.00011   0.00000   0.00056   0.00056   1.98657
   A22        1.84598   0.00001   0.00000  -0.00015  -0.00015   1.84582
   A23        1.90666  -0.00002   0.00000  -0.00001  -0.00001   1.90665
   A24        1.90666  -0.00002   0.00000  -0.00001  -0.00001   1.90665
   A25        1.90755  -0.00014   0.00000  -0.00073  -0.00073   1.90682
   A26        1.90755  -0.00014   0.00000  -0.00073  -0.00073   1.90682
   A27        1.98578   0.00037   0.00000   0.00177   0.00177   1.98755
   A28        1.84593   0.00006   0.00000  -0.00014  -0.00014   1.84579
   A29        1.90591  -0.00009   0.00000  -0.00015  -0.00015   1.90576
   A30        1.90591  -0.00009   0.00000  -0.00015  -0.00015   1.90576
   A31        1.90562  -0.00043   0.00000   0.00119   0.00121   1.90683
   A32        1.90562  -0.00043   0.00000   0.00119   0.00122   1.90683
   A33        1.97865   0.00270   0.00000   0.01262   0.01263   1.99128
   A34        1.84687   0.00055   0.00000   0.00040   0.00035   1.84722
   A35        1.91122  -0.00126   0.00000  -0.00809  -0.00813   1.90309
   A36        1.91121  -0.00126   0.00000  -0.00809  -0.00813   1.90309
   A37        1.94200  -0.00363   0.00000  -0.03250  -0.03338   1.90862
   A38        1.94200  -0.00363   0.00000  -0.03250  -0.03338   1.90862
   A39        1.94770   0.00443   0.00000   0.02681   0.02695   1.97464
   A40        1.87317   0.00007   0.00000  -0.01800  -0.01962   1.85355
   A41        1.87775   0.00145   0.00000   0.02918   0.02949   1.90725
   A42        1.87775   0.00145   0.00000   0.02918   0.02950   1.90724
   A43        1.91063   0.00360   0.00000   0.02124   0.02099   1.93162
   A44        1.91063   0.00426   0.00000   0.02667   0.02634   1.93698
   A45        1.91063   0.00360   0.00000   0.02125   0.02099   1.93162
   A46        1.91063  -0.00381   0.00000  -0.02205  -0.02236   1.88827
   A47        1.91063  -0.00383   0.00000  -0.02505  -0.02523   1.88540
   A48        1.91063  -0.00381   0.00000  -0.02205  -0.02236   1.88827
    D1       -3.10650   0.00000   0.00000  -0.00001  -0.00001  -3.10651
    D2       -1.08873  -0.00001   0.00000  -0.00008  -0.00008  -1.08880
    D3        1.04398   0.00000   0.00000  -0.00004  -0.00004   1.04393
    D4        1.08872   0.00001   0.00000   0.00008   0.00008   1.08880
    D5        3.10650   0.00000   0.00000   0.00001   0.00001   3.10651
    D6       -1.04398   0.00000   0.00000   0.00004   0.00004  -1.04394
    D7       -1.00889   0.00000   0.00000   0.00004   0.00004  -1.00886
    D8        1.00888   0.00000   0.00000  -0.00003  -0.00003   1.00885
    D9        3.14159   0.00000   0.00000   0.00000   0.00000   3.14159
   D10       -1.00538   0.00000   0.00000   0.00004   0.00004  -1.00534
   D11        1.00537   0.00000   0.00000  -0.00004  -0.00004   1.00533
   D12        3.14159   0.00000   0.00000   0.00000   0.00000   3.14159
   D13       -3.14120   0.00000   0.00000   0.00002   0.00002  -3.14118
   D14       -1.13044   0.00000   0.00000  -0.00006  -0.00006  -1.13050
   D15        1.00577   0.00000   0.00000  -0.00002  -0.00002   1.00575
   D16        1.13043   0.00000   0.00000   0.00006   0.00006   1.13049
   D17        3.14119   0.00000   0.00000  -0.00002  -0.00002   3.14117
   D18       -1.00578   0.00000   0.00000   0.00002   0.00002  -1.00576
   D19        1.00581  -0.00002   0.00000  -0.00021  -0.00021   1.00560
   D20       -1.00582   0.00002   0.00000   0.00021   0.00021  -1.00561
   D21        3.14158   0.00000   0.00000   0.00000   0.00000   3.14159
   D22       -1.12950  -0.00003   0.00000  -0.00035  -0.00035  -1.12985
   D23       -3.14114   0.00000   0.00000   0.00007   0.00007  -3.14107
   D24        1.00627  -0.00001   0.00000  -0.00014  -0.00014   1.00613
   D25        3.14112   0.00000   0.00000  -0.00006  -0.00006   3.14106
   D26        1.12949   0.00003   0.00000   0.00035   0.00035   1.12984
   D27       -1.00629   0.00001   0.00000   0.00015   0.00015  -1.00614
   D28        1.00627  -0.00004   0.00000  -0.00049  -0.00049   1.00579
   D29       -1.00629   0.00004   0.00000   0.00049   0.00049  -1.00580
   D30        3.14158   0.00000   0.00000   0.00000   0.00000   3.14159
   D31       -3.14114  -0.00003   0.00000  -0.00039  -0.00039  -3.14152
   D32        1.12949   0.00004   0.00000   0.00059   0.00059   1.13008
   D33       -1.00582   0.00001   0.00000   0.00010   0.00010  -1.00572
   D34       -1.12950  -0.00004   0.00000  -0.00058  -0.00058  -1.13009
   D35        3.14112   0.00003   0.00000   0.00039   0.00039   3.14151
   D36        1.00581  -0.00001   0.00000  -0.00010  -0.00010   1.00571
   D37        1.00577   0.00009   0.00000   0.00089   0.00088   1.00665
   D38       -1.00578  -0.00009   0.00000  -0.00089  -0.00088  -1.00666
   D39        3.14159   0.00000   0.00000   0.00000   0.00000   3.14159
   D40       -3.14120   0.00010   0.00000   0.00106   0.00105  -3.14015
   D41        1.13043  -0.00008   0.00000  -0.00072  -0.00071   1.12973
   D42       -1.00538   0.00001   0.00000   0.00017   0.00017  -1.00521
   D43       -1.13044   0.00008   0.00000   0.00072   0.00071  -1.12973
   D44        3.14119  -0.00010   0.00000  -0.00106  -0.00105   3.14014
   D45        1.00538  -0.00001   0.00000  -0.00017  -0.00017   1.00521
   D46        1.04398  -0.00238   0.00000  -0.03313  -0.03254   1.01144
   D47       -1.04398   0.00238   0.00000   0.03314   0.03254  -1.01144
   D48        3.14159   0.00000   0.00000   0.00000   0.00000   3.14159
   D49       -3.10650  -0.00200   0.00000  -0.02883  -0.02826  -3.13476
   D50        1.08873   0.00276   0.00000   0.03745   0.03682   1.12555
   D51       -1.00889   0.00038   0.00000   0.00431   0.00428  -1.00461
   D52       -1.08872  -0.00276   0.00000  -0.03745  -0.03682  -1.12555
   D53        3.10650   0.00200   0.00000   0.02883   0.02826   3.13476
   D54        1.00889  -0.00038   0.00000  -0.00431  -0.00429   1.00461
   D55        1.04720  -0.00015   0.00000  -0.00233  -0.00237   1.04483
   D56       -3.14159   0.00000   0.00000   0.00000   0.00000  -3.14159
   D57       -1.04720   0.00015   0.00000   0.00233   0.00237  -1.04483
   D58       -3.10103  -0.00092   0.00000  -0.00648  -0.00640  -3.10743
   D59       -1.00663  -0.00077   0.00000  -0.00415  -0.00404  -1.01067
   D60        1.08776  -0.00062   0.00000  -0.00182  -0.00167   1.08609
   D61       -1.08776   0.00062   0.00000   0.00182   0.00167  -1.08609
   D62        1.00664   0.00077   0.00000   0.00415   0.00404   1.01067
   D63        3.10103   0.00092   0.00000   0.00648   0.00640   3.10743
         Item               Value     Threshold  Converged?
 Maximum Force            0.022685     0.000450     NO 
 RMS     Force            0.003549     0.000300     NO 
 Maximum Displacement     0.105583     0.001800     NO 
 RMS     Displacement     0.019605     0.001200     NO 
 Predicted change in Energy=-2.838846D-03
 GradGradGradGradGradGradGradGradGradGradGradGradGradGradGradGradGradGrad

                          Input orientation:                          
 ---------------------------------------------------------------------
 Center     Atomic      Atomic             Coordinates (Angstroms)
 Number     Number       Type             X           Y           Z
 ---------------------------------------------------------------------
      1          6           0        0.001987   -0.006992    0.001465
      2          1           0        0.002003   -0.006958    1.105015
      3          1           0        1.055478   -0.006958   -0.327138
      4          1           0       -0.450654   -0.955044   -0.331492
      5          6           0       -0.752675    1.203201   -0.553655
      6          1           0       -0.765817    1.155120   -1.658397
      7          1           0       -1.811213    1.155117   -0.237232
      8          6           0       -0.156514    2.545087   -0.115121
      9          1           0       -0.142811    2.593376    0.990518
     10          1           0        0.903051    2.593376   -0.431269
     11          6           0       -0.904825    3.763425   -0.665577
     12          1           0       -1.964212    3.713966   -0.349430
     13          1           0       -0.918465    3.713973   -1.771047
     14          6           0       -0.309142    5.105604   -0.227384
     15          1           0        0.750065    5.155261   -0.543462
     16          1           0       -0.295502    5.155260    0.877893
     17          6           0       -1.057315    6.326209   -0.777749
     18          1           0       -2.116340    6.278343   -0.461007
     19          1           0       -1.070263    6.278347   -1.883050
     20          6           0       -0.466648    7.668918   -0.343242
     21          1           0        0.589439    7.725186   -0.663319
     22          1           0       -0.457758    7.725183    0.760248
     23          6           0       -1.236702    8.882775   -0.909702
     24          1           0       -2.286332    8.868168   -0.575104
     25          1           0       -0.782674    9.828383   -0.575712
     26          1           0       -1.229810    8.868170   -2.011352
 ---------------------------------------------------------------------
                    Distance matrix (angstroms):
                    1          2          3          4          5
     1  C    0.000000
     2  H    1.103550   0.000000
     3  H    1.103550   1.777884   0.000000
     4  H    1.102065   1.779696   1.779697   0.000000
     5  C    1.530439   2.187513   2.187513   2.190570   0.000000
     6  H    2.166834   3.094579   2.537675   2.512528   1.105865
     7  H    2.166834   2.537676   3.094579   2.512525   1.105865
     8  C    2.559652   2.833160   2.833162   3.519126   1.532442
     9  H    2.785876   2.606879   3.151801   3.799179   2.165408
    10  H    2.785873   3.151792   2.606878   3.799178   2.165408
    11  C    3.934882   4.262995   4.262994   4.752035   2.567182
    12  H    4.223103   4.452717   4.792108   4.908241   2.795258
    13  H    4.223104   4.792110   4.452712   4.908246   2.795264
    14  C    5.127164   5.292484   5.292487   6.063193   3.941055
    15  H    5.244561   5.470428   5.175768   6.230769   4.228133
    16  H    5.244566   5.175769   5.470442   6.230770   4.228133
    17  C    6.468286   6.691484   6.691483   7.320097   5.136948
    18  H    6.648806   6.815043   7.041545   7.423824   5.255971
    19  H    6.648804   7.041544   6.815034   7.423826   5.255973
    20  C    7.697924   7.825353   7.825356   8.623984   6.475459
    21  H    7.782905   7.953498   7.753467   8.748616   6.659548
    22  H    7.782908   7.753467   7.953509   8.748617   6.659547
    23  C    9.021781   9.198958   9.198957   9.886095   7.703045
    24  H    9.183534   9.318108   9.486677   9.996226   7.816922
    25  H    9.883492  10.008721  10.008722  10.791300   8.625261
    26  H    9.183532   9.486675   9.318101   9.996227   7.816923
                    6          7          8          9         10
     6  H    0.000000
     7  H    1.764246   0.000000
     8  C    2.164476   2.164476   0.000000
     9  H    3.077900   2.521810   1.106778   0.000000
    10  H    2.521813   3.077900   1.106778   1.765023   0.000000
    11  C    2.794328   2.794332   1.532097   2.166179   2.166179
    12  H    3.114039   2.565873   2.165399   2.523625   3.079548
    13  H    2.565875   3.114053   2.165399   3.079548   2.523620
    14  C    4.226425   4.226424   2.567517   2.796827   2.796832
    15  H    4.420645   4.759734   2.796135   3.116661   2.568900
    16  H    4.759735   4.420637   2.796140   2.568900   3.116679
    17  C    5.253634   5.253638   3.943020   4.230500   4.230500
    18  H    5.431856   5.137180   4.230574   4.425011   4.764094
    19  H    5.137179   5.431870   4.230572   4.764092   4.425002
    20  C    6.651969   6.651969   5.138274   5.257843   5.257846
    21  H    6.781789   7.007887   5.262166   5.441217   5.146618
    22  H    7.007887   6.781783   5.262169   5.146617   5.441228
    23  C    7.778105   7.778109   6.477998   6.660629   6.660629
    24  H    7.935779   7.735053   6.687979   6.813139   7.040303
    25  H    8.740593   8.740595   7.324658   7.430197   7.430199
    26  H    7.735051   7.935787   6.687977   7.040301   6.813134
                   11         12         13         14         15
    11  C    0.000000
    12  H    1.106660   0.000000
    13  H    1.106660   1.764818   0.000000
    14  C    1.532414   2.165827   2.165827   0.000000
    15  H    2.165820   3.079330   2.523542   1.106476   0.000000
    16  H    2.165820   2.523538   3.079330   1.106476   1.764500
    17  C    2.569766   2.798165   2.798160   1.533800   2.166248
    18  H    2.799005   2.571307   3.118830   2.166994   3.079673
    19  H    2.799007   3.118843   2.571304   2.166994   2.523769
    20  C    3.943192   4.228992   4.228990   2.570760   2.799812
    21  H    4.234191   4.765453   4.426134   2.803515   2.577728
    22  H    4.234191   4.426133   4.765450   2.803516   3.124580
    23  C    5.135901   5.249739   5.249734   3.948791   4.239780
    24  H    5.289153   5.169186   5.465077   4.264631   4.796497
    25  H    6.066853   6.231639   6.231635   4.759223   4.918170
    26  H    5.289154   5.465085   5.169181   4.264631   4.456489
                   16         17         18         19         20
    16  H    0.000000
    17  C    2.166248   0.000000
    18  H    2.523771   1.106413   0.000000
    19  H    3.079673   1.106413   1.765356   0.000000
    20  C    2.799810   1.529886   2.160798   2.160797   0.000000
    21  H    3.124576   2.163800   3.074983   2.517081   1.104960
    22  H    2.577726   2.163801   2.517083   3.074984   1.104960
    23  C    4.239778   2.566246   2.785347   2.785346   1.545092
    24  H    4.456489   2.830742   2.597904   3.145905   2.191623
    25  H    4.918168   3.518731   3.794022   3.794021   2.194813
    26  H    4.796496   2.830742   3.145904   2.597903   2.191624
                   21         22         23         24         25
    21  H    0.000000
    22  H    1.767248   0.000000
    23  C    2.176122   2.176122   0.000000
    24  H    3.095844   2.536388   1.101768   0.000000
    25  H    2.512729   2.512729   1.100847   1.784096   0.000000
    26  H    2.536390   3.095844   1.101768   1.782989   1.784096
                   26
    26  H    0.000000
 Stoichiometry    C8H18
 Framework group  C1[X(C8H18)]
 Deg. of freedom    72
 Full point group                 C1      NOp   1
 Largest Abelian subgroup         C1      NOp   1
 Largest concise Abelian subgroup C1      NOp   1
                         Standard orientation:                         
 ---------------------------------------------------------------------
 Center     Atomic      Atomic             Coordinates (Angstroms)
 Number     Number       Type             X           Y           Z
 ---------------------------------------------------------------------
      1          6           0       -4.500428    0.251059    0.000004
      2          1           0       -4.574601    0.900764   -0.888931
      3          1           0       -4.574601    0.900744    0.888953
      4          1           0       -5.378589   -0.414809   -0.000004
      5          6           0       -3.191738   -0.542397   -0.000005
      6          1           0       -3.164022   -1.208761    0.882112
      7          1           0       -3.164024   -1.208744   -0.882134
      8          6           0       -1.942507    0.345183    0.000002
      9          1           0       -1.970128    1.012547   -0.882506
     10          1           0       -1.970130    1.012537    0.882517
     11          6           0       -0.626618   -0.439520   -0.000001
     12          1           0       -0.600174   -1.106866   -0.882410
     13          1           0       -0.600170   -1.106866    0.882407
     14          6           0        0.622971    0.447509   -0.000003
     15          1           0        0.596735    1.114773    0.882244
     16          1           0        0.596738    1.114765   -0.882256
     17          6           0        1.941092   -0.336773    0.000002
     18          1           0        1.969047   -1.003298   -0.882671
     19          1           0        1.969046   -1.003285    0.882685
     20          6           0        3.191915    0.544132   -0.000003
     21          1           0        3.172802    1.207296    0.883617
     22          1           0        3.172803    1.207285   -0.883631
     23          6           0        4.506415   -0.267902    0.000003
     24          1           0        4.565353   -0.912622   -0.891488
     25          1           0        5.381951    0.399406    0.000000
     26          1           0        4.565352   -0.912613    0.891501
 ---------------------------------------------------------------------
 Rotational constants (GHZ):          10.6563342           0.4841625           0.4740825
 Standard basis: CC-pVDZ (5D, 7F)
 There are   210 symmetry adapted cartesian basis functions of A   symmetry.
 There are   202 symmetry adapted basis functions of A   symmetry.
   202 basis functions,   390 primitive gaussians,   210 cartesian basis functions
    33 alpha electrons       33 beta electrons
       nuclear repulsion energy       372.5412110922 Hartrees.
 NAtoms=   26 NActive=   26 NUniq=   26 SFac= 1.00D+00 NAtFMM=   60 NAOKFM=F Big=F
 Integral buffers will be    131072 words long.
 Raffenetti 2 integral format.
 Two-electron integral symmetry is turned on.
 One-electron integrals computed using PRISM.
 NBasis=   202 RedAO= T EigKep=  1.78D-03  NBF=   202
 NBsUse=   202 1.00D-06 EigRej= -1.00D+00 NBFU=   202
 Initial guess from the checkpoint file:  "C8H18_opt.chk"
 B after Tr=     0.000000    0.000000    0.000000
         Rot=    1.000000    0.000000    0.000000   -0.000308 Ang=  -0.04 deg.
 ExpMin= 1.22D-01 ExpMax= 6.67D+03 ExpMxC= 2.28D+02 IAcc=2 IRadAn=         4 AccDes= 0.00D+00
 Harris functional with IExCor=  402 and IRadAn=       4 diagonalized for initial guess.
 HarFok:  IExCor=  402 AccDes= 0.00D+00 IRadAn=         4 IDoV= 1 UseB2=F ITyADJ=14
 ICtDFT=  3500011 ScaDFX=  1.000000  1.000000  1.000000  1.000000
 FoFCou: FMM=F IPFlag=           0 FMFlag=      100000 FMFlg1=           0
         NFxFlg=           0 DoJE=T BraDBF=F KetDBF=T FulRan=T
         wScrn=  0.000000 ICntrl=       500 IOpCl=  0 I1Cent=   200000004 NGrid=           0
         NMat0=    1 NMatS0=      1 NMatT0=    0 NMatD0=    1 NMtDS0=    0 NMtDT0=    0
 Petite list used in FoFCou.
 Requested convergence on RMS density matrix=1.00D-08 within 128 cycles.
 Requested convergence on MAX density matrix=1.00D-06.
 Requested convergence on             energy=1.00D-06.
 No special actions if energy rises.
 Integral accuracy reduced to 1.0D-05 until final iterations.
 Initial convergence to 1.0D-05 achieved.  Increase integral accuracy.
 SCF Done:  E(RB3LYP) =  -315.716792218     A.U. after    9 cycles
            NFock=  9  Conv=0.86D-08     -V/T= 2.0091
 Calling FoFJK, ICntrl=      2127 FMM=F ISym2X=0 I1Cent= 0 IOpClX= 0 NMat=1 NMatS=1 NMatT=0.
 ***** Axes restored to original set *****
 -------------------------------------------------------------------
 Center     Atomic                   Forces (Hartrees/Bohr)
 Number     Number              X              Y              Z
 -------------------------------------------------------------------
      1        6           0.000019888    0.000024825    0.000014805
      2        1           0.000000460   -0.000001922   -0.000000326
      3        1          -0.000000110   -0.000001950    0.000000493
      4        1          -0.000006110    0.000017871   -0.000004565
      5        6          -0.000054273    0.000035404   -0.000039969
      6        1          -0.000000282    0.000003572    0.000003457
      7        1           0.000003179    0.000003598   -0.000001308
      8        6           0.000115617    0.000113793    0.000085063
      9        1           0.000006887   -0.000010726    0.000006537
     10        1           0.000008287   -0.000010708    0.000004633
     11        6          -0.000289020    0.000185082   -0.000212570
     12        1           0.000031258    0.000012097   -0.000019306
     13        1          -0.000009126    0.000012049    0.000035547
     14        6           0.000049157    0.000880841    0.000036170
     15        1           0.000083668   -0.000028391   -0.000018798
     16        1           0.000006987   -0.000028417    0.000085470
     17        6          -0.000315106   -0.001268382   -0.000231934
     18        1          -0.000289610   -0.000278130   -0.000106343
     19        1          -0.000187799   -0.000278162   -0.000244677
     20        6          -0.003118618    0.005417448   -0.002294102
     21        1           0.000473713    0.000037664    0.000207103
     22        1           0.000338729    0.000037585    0.000390493
     23        6           0.005080519   -0.007271972    0.003737285
     24        1          -0.000915132    0.000762897   -0.000332018
     25        1          -0.000443750    0.000871185   -0.000326410
     26        1          -0.000589414    0.000762849   -0.000774728
 -------------------------------------------------------------------
 Cartesian Forces:  Max     0.007271972 RMS     0.001362347

 GradGradGradGradGradGradGradGradGradGradGradGradGradGradGradGradGradGrad
 Berny optimization.
 Using GEDIIS/GDIIS optimizer.
 FormGI is forming the generalized inverse of G from B-inverse, IUseBI=4.
 Internal  Forces:  Max     0.006235346 RMS     0.000613242
 Search for a local minimum.
 Step number   2 out of a maximum of  146
 All quantities printed in internal units (Hartrees-Bohrs-Radians)
 Mixed Optimization -- En-DIIS/RFO-DIIS
 Update second derivatives using D2CorX and points    1    2
 DE= -2.82D-03 DEPred=-2.84D-03 R= 9.94D-01
 TightC=F SS=  1.41D+00  RLast= 1.61D-01 DXNew= 5.0454D-01 4.8296D-01
 Trust test= 9.94D-01 RLast= 1.61D-01 DXMaxT set to 4.83D-01
 ITU=  1  0
 Use linear search instead of GDIIS.
     Eigenvalues ---    0.00237   0.00338   0.00338   0.00342   0.00342
     Eigenvalues ---    0.00363   0.00363   0.03366   0.03373   0.03379
     Eigenvalues ---    0.03380   0.03422   0.03427   0.04741   0.04772
     Eigenvalues ---    0.04773   0.04774   0.04778   0.04789   0.05426
     Eigenvalues ---    0.05456   0.05478   0.05499   0.08358   0.08476
     Eigenvalues ---    0.08541   0.08546   0.08555   0.08626   0.12258
     Eigenvalues ---    0.12309   0.12357   0.12360   0.12367   0.12391
     Eigenvalues ---    0.15236   0.16000   0.16000   0.16000   0.16000
     Eigenvalues ---    0.16001   0.21787   0.21895   0.21902   0.21903
     Eigenvalues ---    0.21905   0.22103   0.27947   0.29204   0.29207
     Eigenvalues ---    0.29237   0.29237   0.29369   0.29383   0.32940
     Eigenvalues ---    0.32940   0.32940   0.32940   0.32958   0.32958
     Eigenvalues ---    0.33028   0.33039   0.33039   0.33039   0.33265
     Eigenvalues ---    0.33289   0.33289   0.33289   0.33453   0.37219
     Eigenvalues ---    0.37230   0.39249
 RFO step:  Lambda=-2.08021570D-04 EMin= 2.36824222D-03
 Quartic linear search produced a step of  0.03633.
 Iteration  1 RMS(Cart)=  0.00439623 RMS(Int)=  0.00001890
 Iteration  2 RMS(Cart)=  0.00001816 RMS(Int)=  0.00001124
 Iteration  3 RMS(Cart)=  0.00000000 RMS(Int)=  0.00001124
 Variable       Old X    -DE/DX   Delta X   Delta X   Delta X     New X
                                 (Linear)    (Quad)   (Total)
    R1        2.08541   0.00000   0.00000   0.00000   0.00000   2.08540
    R2        2.08541   0.00000   0.00000   0.00000   0.00000   2.08540
    R3        2.08260  -0.00001   0.00000  -0.00004  -0.00004   2.08256
    R4        2.89211  -0.00002   0.00000  -0.00007  -0.00007   2.89204
    R5        2.08978   0.00000   0.00000  -0.00001  -0.00001   2.08977
    R6        2.08978   0.00000   0.00000  -0.00001  -0.00001   2.08977
    R7        2.89589  -0.00005   0.00001  -0.00018  -0.00017   2.89573
    R8        2.09151   0.00001   0.00000   0.00002   0.00002   2.09152
    R9        2.09151   0.00001   0.00000   0.00002   0.00002   2.09152
   R10        2.89524  -0.00007   0.00000  -0.00024  -0.00023   2.89501
   R11        2.09128  -0.00004   0.00000  -0.00011  -0.00011   2.09117
   R12        2.09128  -0.00004   0.00000  -0.00011  -0.00011   2.09117
   R13        2.89584  -0.00023   0.00003  -0.00082  -0.00080   2.89505
   R14        2.09094   0.00008  -0.00002   0.00026   0.00024   2.09118
   R15        2.09094   0.00008  -0.00002   0.00026   0.00024   2.09118
   R16        2.89846  -0.00099   0.00010  -0.00349  -0.00339   2.89507
   R17        2.09082   0.00026   0.00004   0.00081   0.00085   2.09167
   R18        2.09082   0.00026   0.00004   0.00081   0.00085   2.09167
   R19        2.89106   0.00103  -0.00004   0.00364   0.00360   2.89467
   R20        2.08807   0.00039   0.00009   0.00123   0.00133   2.08940
   R21        2.08807   0.00039   0.00009   0.00123   0.00133   2.08940
   R22        2.91980  -0.00624   0.00035  -0.02263  -0.02228   2.89753
   R23        2.08204   0.00076   0.00218   0.00219   0.00437   2.08641
   R24        2.08030   0.00047   0.00212   0.00137   0.00349   2.08379
   R25        2.08204   0.00076   0.00218   0.00219   0.00437   2.08641
    A1        1.87314   0.00000   0.00000   0.00003   0.00003   1.87316
    A2        1.87775   0.00001   0.00000   0.00003   0.00003   1.87777
    A3        1.94196   0.00001   0.00000   0.00005   0.00005   1.94202
    A4        1.87775   0.00001   0.00000   0.00003   0.00003   1.87777
    A5        1.94196   0.00001   0.00000   0.00005   0.00005   1.94202
    A6        1.94779  -0.00002   0.00000  -0.00018  -0.00018   1.94762
    A7        1.91116   0.00002   0.00000   0.00008   0.00008   1.91124
    A8        1.91116   0.00002   0.00000   0.00008   0.00008   1.91124
    A9        1.97882  -0.00005   0.00001  -0.00025  -0.00024   1.97857
   A10        1.84687  -0.00001   0.00000   0.00004   0.00004   1.84691
   A11        1.90559   0.00001   0.00000   0.00003   0.00003   1.90562
   A12        1.90559   0.00001   0.00000   0.00003   0.00003   1.90562
   A13        1.90593   0.00003   0.00000   0.00007   0.00007   1.90600
   A14        1.90593   0.00003   0.00000   0.00007   0.00007   1.90600
   A15        1.98614  -0.00012   0.00001  -0.00062  -0.00061   1.98553
   A16        1.84585  -0.00002   0.00000   0.00004   0.00004   1.84589
[...]
 .00005562,-0.00001126,-0.00005579,0.00009164,-0.00004051,0.00000876,-0
 .00002104,0.00008545,-0.00070766,0.00014396,0.00004559,0.00007466,0.00
 013241,0.00030831,0.00009621,0.00029050,-0.00065196,0.00015754,-0.0175
 5444,0.00058333,-0.00075528,-0.00023934,-0.00082809,0.00280407,-0.0018
 8243,-0.04767248,0.00011389,0.00348242,-0.00043477,0.00133471,0.029907
 16,0.04878048,0.00000388,0.00001887,-0.00000350,0.00000008,0.00001064,
 -0.00000553,0.00000126,0.00000137,0.00000272,-0.00000122,-0.00000149,0
 .00000050,-0.00000872,0.00002802,-0.00008677,-0.00001379,-0.00005337,-
 0.00003728,-0.00000359,-0.00000419,0.00000125,0.00011157,-0.00006824,0
 .00001851,-0.00005574,0.00004200,-0.00027180,-0.00000379,0.00001347,0.
 00001032,-0.00009440,0.00177081,0.00133329,-0.00002657,-0.00004208,-0.
 00004576,0.00001316,-0.00038009,-0.00070537,-0.00021320,-0.00085573,0.
 02684932,-0.00024120,0.00094904,-0.00071607,0.00281217,-0.00401898,0.0
 0205280,0.00008464,-0.04611296,-0.01079303,0.00001629,-0.00044387,0.00
 139313,-0.00040080,0.05493355,0.00001927,0.00001318,0.00001579,-0.0000
 0069,-0.00000896,0.00000783,-0.00000468,-0.00000272,-0.00000456,-0.000
 00343,0.00002016,-0.00000609,-0.00005663,0.00004289,-0.00003979,-0.000
 00067,0.00004378,0.00003567,0.00000680,0.00000486,-0.00000311,0.000042
 61,0.00018403,0.00052595,0.00009165,-0.00027196,0.00013785,-0.00000513
 ,-0.00000668,-0.00003235,0.00006585,-0.00116223,0.00015270,-0.00003075
 ,0.00000883,0.00002037,0.00019962,0.00083466,0.00072173,0.00020702,-0.
 00027415,-0.01327595,-0.00045075,-0.00002023,0.00079773,-0.00187812,0.
 00205021,0.00031706,0.00181883,-0.01084607,-0.29314827,0.00050757,-0.0
 0039925,-0.00992141,0.00084030,0.01199504,0.32168271,0.00016272,0.0001
 4212,0.00010693,-0.00000518,-0.00000576,-0.00002105,-0.00002914,-0.000
 00279,0.00000464,-0.00003755,0.00011455,-0.00002315,-0.00045289,0.0002
 6049,-0.00031419,0.00000314,-0.00000170,0.00002661,0.00002144,0.000001
 74,-0.00001549,0.00126431,0.00115721,0.00043510,0.00000687,-0.00000876
 ,-0.00005664,-0.00002933,-0.00008564,0.00008980,-0.00324364,0.00257750
 ,-0.00186050,0.00048181,-0.00001080,-0.00023521,-0.00008466,-0.0001135
 7,0.00006099,0.00855341,0.01459778,0.00717054,0.00021557,0.00124247,0.
 00011285,0.00009312,-0.00009121,0.00007742,-0.09881648,-0.04048661,-0.
 01587615,-0.01406543,-0.02828962,-0.00992854,-0.00060745,0.00037397,0.
 00016684,0.54607277,-0.00006200,-0.00008904,-0.00004561,-0.00000215,0.
 00000176,-0.00000128,-0.00000186,0.00000176,-0.00000168,0.00002163,-0.
 00002452,0.00001591,0.00026020,-0.00025734,0.00019140,0.00000624,0.000
 02197,-0.00000197,-0.00000002,0.00002197,0.00000654,-0.00085833,-0.000
 42285,-0.00063140,-0.00001768,0.00002804,0.00004279,0.00003559,0.00002
 804,-0.00002962,0.00248306,-0.00196106,0.00182655,-0.00009553,-0.00008
 017,0.00007515,0.00004330,-0.00008017,-0.00011357,-0.00894390,-0.02883
 089,-0.00657924,-0.00130693,0.00173683,-0.00032533,-0.00069973,0.00173
 682,-0.00115077,-0.04123844,-0.15768526,-0.03033538,-0.00087494,-0.003
 55984,-0.00123856,-0.00144286,-0.00355976,-0.00046644,0.00002606,0.455
 74977,0.00010693,0.00010454,0.00009602,-0.00000284,-0.00000112,-0.0000
 2402,-0.00001357,-0.00000516,-0.00000006,-0.00002315,0.00008427,-0.000
 02311,-0.00031419,0.00019161,-0.00025689,-0.00000978,0.00000235,0.0000
 1797,0.00002090,-0.00000232,-0.00000033,0.00043510,0.00085124,0.000992
 88,0.00007850,-0.00008697,-0.00003967,-0.00004535,0.00001754,-0.000003
 47,-0.00186051,0.00189602,-0.00208301,-0.00011570,-0.00011560,-0.00003
 032,-0.00005852,0.00002411,0.00053615,0.00717049,0.01073815,0.00408032
 ,0.00003923,-0.00048308,0.00003377,0.00015104,0.00132996,0.00015622,-0
 .01587615,-0.02978233,-0.08891280,0.00436451,0.00921553,0.00243732,-0.
 01412616,-0.02975045,-0.01102074,-0.02458786,0.00001892,0.56141114,-0.
 00001894,-0.00000615,-0.00000718,-0.00000038,-0.00000035,0.00000141,0.
 00000909,-0.00000260,-0.00000176,0.00000274,-0.00000884,0.00000231,0.0
 0002139,0.,0.00002090,-0.00000444,-0.00000116,-0.00000251,0.00000790,0
 .00000585,-0.00000391,-0.00003526,-0.00005347,-0.00003980,0.00000065,-
 0.00000359,0.00000680,0.00003432,-0.00003968,-0.00000355,0.00049621,-0
 .00010489,-0.00011113,0.00011037,0.00029347,0.00001215,-0.00003976,-0.
 00000258,-0.00000492,0.00022698,0.00114757,-0.00012174,0.00083726,-0.0
 0067384,0.00012846,0.00004775,-0.00002498,-0.00002994,-0.01405905,-0.0
 0119203,0.00437138,-0.00012754,-0.00256856,-0.00141182,0.00047128,0.00
 015932,-0.00048929,-0.27277736,-0.01086727,0.07153522,0.29993097,-0.00
 000524,0.00000124,-0.00000167,0.00000016,-0.00000040,0.00000111,0.0000
 0399,-0.00000215,-0.00000027,-0.00000008,-0.00000307,0.00000026,0.0000
 0170,0.00002201,-0.00000232,-0.00000277,-0.00000031,-0.00000035,0.0000
 0586,0.00001039,-0.00000321,0.00008554,0.00003291,-0.00002705,0.000001
 10,-0.00000419,0.00000486,0.00004839,-0.00005341,0.00000812,-0.0000006
 5,-0.00009370,-0.00011392,0.00028620,0.00010499,-0.00003519,-0.0000161
 8,0.00001182,0.00000281,-0.00143260,0.00182466,0.00031660,0.00083089,-
 0.00037822,-0.00015674,0.00007717,-0.00004168,0.00001461,-0.02840219,-
 0.00360314,0.00927251,-0.00246001,-0.00507508,-0.00181398,0.00067226,0
 .00111030,-0.00005130,-0.01084326,-0.04609215,0.00303450,0.01142220,0.
 05541159,0.00000705,0.00000288,0.00000176,0.00000136,0.00000059,-0.000
 00123,-0.00000193,0.00000114,0.00000258,-0.00000225,0.00000065,-0.0000
 0096,-0.00001548,0.00000653,-0.00000033,-0.00000013,-0.00000254,-0.000
 00362,-0.00000390,-0.00000321,-0.00000220,0.00007665,0.00003738,-0.000
 00546,0.00000425,0.00000126,-0.00000312,-0.00000656,-0.00000207,0.0000
 1676,-0.00023919,0.00007305,-0.00003605,0.00001197,-0.00003668,-0.0000
 4464,-0.00001885,-0.00001838,-0.00003306,0.00019797,0.00019121,-0.0000
 3072,0.00004216,0.00022366,0.00020719,0.00013153,-0.00004136,0.0000141
 6,-0.01004341,-0.00117874,0.00247427,-0.00141910,-0.00183207,0.0006901
 9,-0.00040188,0.00064840,0.00072485,0.07344175,0.00328327,-0.07115807,
 -0.07743530,-0.00373667,0.07272741,-0.00000012,0.00000092,0.00000118,0
 .00000211,0.00000031,0.00000025,-0.00000036,0.00000046,0.00000135,-0.0
 0000061,-0.00000202,-0.00000120,0.00000313,0.00000623,-0.00000979,-0.0
 0000352,-0.00000132,-0.00000034,-0.00000444,-0.00000277,-0.00000013,0.
 00000237,0.00001977,0.00006491,0.00001544,-0.00001379,-0.00000067,0.00
 000036,0.00000013,0.00000434,-0.00008843,0.00003850,-0.00005684,-0.000
 04041,-0.00001831,-0.00001865,-0.00002404,0.00005237,0.00005389,0.0000
 1380,0.00052423,0.00026447,0.00004601,-0.00004692,0.00013207,0.0003115
 5,0.00001287,0.00020613,-0.00060391,-0.00148018,-0.01424014,0.00044904
 ,0.00066643,-0.00039494,-0.00018700,-0.00251377,-0.00140055,-0.0478235
 7,-0.00010152,0.00327660,-0.00033364,0.00140323,0.02996667,0.04884894,
 -0.00000315,0.00000124,-0.00000450,0.00000093,-0.00000215,0.00000389,0
 .00000111,-0.00000040,-0.00000018,0.00000022,-0.00000307,-0.00000016,-
 0.00000171,0.00002201,0.00000231,-0.00000132,0.00001039,0.00000655,-0.
 00000116,-0.00000031,-0.00000254,-0.00000035,0.00003291,0.00008972,0.0
 0002216,-0.00005341,0.00004378,0.00000497,-0.00000419,-0.00000040,-0.0
 0010895,-0.00009370,0.00003330,-0.00000214,0.00001182,-0.00001629,0.00
 005163,0.00010499,0.00028370,-0.00012434,0.00182466,-0.00146188,0.0000
 3693,-0.00004168,0.00006932,0.00009778,-0.00037822,0.00083987,0.000394
 85,-0.00360306,-0.02987488,0.00015120,0.00111030,0.00065705,-0.0024641
 8,-0.00507508,-0.00180831,-0.00033185,-0.04609209,-0.01125432,-0.00002
 675,-0.00046074,0.00147833,-0.00016610,0.05541153,-0.00001305,-0.00000
 673,-0.00001707,0.00000042,-0.00000282,0.00000957,0.00000141,-0.000000
 51,-0.00000125,0.00000336,-0.00000863,0.00000239,0.00002659,-0.0000019
 4,0.00001793,-0.00000034,0.00000654,0.00000922,-0.00000251,-0.00000035
 ,-0.00000362,-0.00005154,-0.00006217,-0.00004309,0.00000234,-0.0000372
 7,0.00003563,0.00000690,-0.00000380,-0.00000282,0.00007123,-0.00012188
 ,0.00054859,-0.00000472,0.00000301,-0.00003241,0.00005407,0.00029108,0
 .00008977,-0.00005525,0.00103859,0.00018247,-0.00002940,-0.00001153,0.
 00001589,0.00029244,-0.00070987,0.00073290,0.00017459,-0.00078695,-0.0
 1098095,-0.00048236,-0.00004097,0.00074708,-0.00139327,-0.00190655,0.0
 0074966,0.00137006,-0.01135132,-0.29611192,0.00064710,-0.00046570,-0.0
 0988235,0.00087949,0.01201605,0.32380950,-0.00006307,-0.00005207,-0.00
 004114,0.00000487,0.00000320,0.00000895,0.00000780,0.00000386,0.000000
 92,0.00001083,-0.00004970,0.00000700,0.00016265,-0.00006200,0.00010686
 ,-0.00000012,-0.00000316,-0.00001306,-0.00001897,-0.00000525,0.0000070
 5,-0.00033574,-0.00029425,-0.00022587,0.00000161,0.00000387,0.00001927
 ,0.00001739,-0.00000217,-0.00001403,0.00111762,-0.00083547,0.00034405,
 -0.00002656,0.00009440,0.00007507,0.00000383,0.00000301,-0.00004727,-0
 .00217603,-0.00260361,-0.00118790,0.00047707,-0.00001313,-0.00020940,-
 0.00008718,0.00009530,0.00001644,0.00811948,-0.00914188,0.00640484,0.0
 0062395,-0.00116137,0.00019856,0.00005803,-0.00003919,0.00007628,-0.10
 919954,0.04849133,-0.02381157,-0.01560862,0.02640622,-0.01266481,-0.00
 068444,0.00012357,0.00026560,0.53567261,-0.00005207,-0.00004953,-0.000
 03830,0.00000138,0.00000159,0.00000681,0.00000691,0.00000159,-0.000000
 71,0.00001269,-0.00003176,0.00000933,0.00014204,-0.00008909,0.00010449
 ,0.00000092,0.00000123,-0.00000674,-0.00000616,0.00000123,0.00000288,-
 0.00035092,-0.00041054,-0.00025814,-0.00000931,0.00001890,0.00001315,0
 .00000978,0.00001890,-0.00001280,0.00120019,-0.00055778,0.00088286,-0.
 00005045,0.00003766,0.00004214,0.00002520,0.00003766,-0.00006071,-0.00
 292256,-0.00346085,-0.00214986,0.00014360,-0.00003497,-0.00010786,-0.0
 0006021,-0.00003497,0.00016920,0.01500003,-0.03010385,0.01103405,0.001
 05427,0.00177758,0.00029469,0.00059524,0.00177758,0.00091870,0.0471446
 7,-0.14973619,0.03467974,-0.00039489,-0.00049562,-0.00000151,-0.000118
 99,-0.00049569,-0.00037650,0.03741914,0.51066060,-0.00004114,-0.000038
 30,-0.00003740,0.00000184,0.00000305,0.00000472,0.00000804,0.00000215,
 0.00000179,0.00000700,-0.00003656,0.00000647,0.00010687,-0.00004561,0.
 00009598,0.00000117,-0.00000452,-0.00001709,-0.00000718,-0.00000167,0.
 00000175,-0.00022587,-0.00021646,-0.00019484,-0.00000910,-0.00000348,0
 .00001575,0.00001434,0.00000473,-0.00000003,0.00034405,-0.00061458,0.0
 0090300,-0.00003780,-0.00002630,-0.00000484,0.00006559,0.00009795,-0.0
 0003523,-0.00118790,-0.00191524,-0.00143501,-0.00015955,0.00010393,-0.
 00002700,-0.00003341,-0.00004349,0.00053726,0.00640488,-0.00672488,0.0
 0412402,-0.00010024,0.00032119,-0.00002770,0.00037508,-0.00120433,0.00
 053822,-0.02381158,0.03567035,-0.09434525,0.00492059,-0.00810690,0.003
 18299,-0.01731985,0.02762236,-0.01174111,-0.01414148,0.02752565,0.5444
 9449,0.00000782,0.00000692,0.00000804,-0.00000236,-0.00000110,-0.00000
 284,0.00000144,-0.00000238,-0.00000169,-0.00000041,0.00001103,0.000000
 04,-0.00002917,-0.00000184,-0.00001358,-0.00000036,0.00000111,0.000001
 41,0.00000910,0.00000399,-0.00000194,0.00002727,0.00000070,0.00002653,
 -0.00000463,0.00000126,-0.00000468,0.00000648,-0.00000526,-0.00000365,
 -0.00003133,0.00003201,-0.00005610,0.00002976,0.00004534,-0.00000393,0
 .00000023,0.00000465,0.00000770,0.00042474,0.00007666,-0.00008561,0.00
 015137,-0.00025962,0.00002606,-0.00003919,-0.00000088,-0.00001124,0.00
 053437,-0.00130934,0.00000767,0.00070227,0.00083973,0.00009286,0.00003
 538,0.00002864,-0.00000230,-0.01619683,-0.00050376,0.00507403,-0.00040
 883,0.00310964,-0.00194194,0.00053017,-0.00022473,-0.00049544,-0.28047
 488,-0.00317842,0.07601481,0.30610102,0.00000385,0.00000158,0.00000215
 ,0.00000012,0.00000033,-0.00000119,-0.00000237,0.00000088,0.00000052,-
 0.00000060,0.00000231,-0.00000045,-0.00000276,0.00000174,-0.00000515,0
 .00000046,-0.00000040,-0.00000051,-0.00000260,-0.00000215,0.00000114,0
 .00000719,0.00002254,0.00001294,0.00000186,0.00000137,-0.00000273,-0.0
 0000879,0.00001063,0.00000188,-0.00010432,0.00003196,0.00000919,-0.000
 04005,-0.00005480,-0.00000164,0.00000050,-0.00000422,-0.00000356,0.000
 04481,-0.00009407,0.00013805,-0.00028071,0.00005886,0.00001992,0.00001
 115,0.00001751,-0.00001548,0.00129161,0.00195396,-0.00063835,-0.000697
 97,-0.00030474,0.00021663,-0.00007646,-0.00006534,-0.00001829,0.025521
 92,-0.00031196,-0.00887754,0.00293178,-0.00400652,0.00207670,-0.000751
 65,0.00100324,-0.00014329,-0.00474630,-0.04573487,0.00166193,0.0012877
 4,0.04850402,0.00000092,-0.00000071,0.00000179,-0.00000045,0.00000047,
 -0.00000133,-0.00000169,0.00000052,-0.00000032,0.00000024,0.00000118,-
 0.00000010,0.00000463,-0.00000168,-0.00000006,0.00000135,-0.00000018,-
 0.00000125,-0.00000177,-0.00000027,0.00000259,-0.00000912,-0.00000715,
 0.00000354,-0.00000107,0.00000272,-0.00000456,-0.00000396,0.00000173,-
 0.00000264,0.00008096,-0.00002806,-0.00001246,-0.00000226,0.00000982,0
 .00001678,0.00000439,-0.00000089,-0.00000195,-0.00022132,-0.00008588,-
 0.00002515,0.00003618,0.00002082,-0.00005002,-0.00002150,0.00001261,-0
 .00003662,0.00015497,-0.00037679,0.00000988,0.00019066,-0.00013587,0.0
 0017713,0.00013258,0.00004085,-0.00000792,-0.01301781,-0.00013801,0.00
 347063,-0.00166633,0.00246345,0.00016443,-0.00024215,-0.00075423,0.000
 65616,0.07686640,0.00110769,-0.07044721,-0.08241702,-0.00339427,0.0725
 1389,0.00001085,0.00001270,0.00000701,-0.00000005,-0.00000061,-0.00000
 008,-0.00000041,-0.00000060,0.00000024,-0.00000258,0.00000739,-0.00000
 188,-0.00003757,0.00002164,-0.00002316,-0.00000061,0.00000023,0.000003
 36,0.00000275,-0.00000008,-0.00000225,0.00007521,0.00007745,0.00005319
 ,0.00000236,-0.00000123,-0.00000343,-0.00000576,0.00000011,0.00000446,
 -0.00023706,0.00021641,-0.00017192,0.00000878,-0.00000794,-0.00001655,
 -0.00000625,-0.00001252,0.00001181,0.00079250,0.00088214,0.00014001,0.
 00001334,-0.00009929,0.00007329,0.00001588,-0.00001015,-0.00002738,-0.
 00178690,0.00201071,-0.00149782,0.00038795,0.00029028,-0.00018677,-0.0
 0016195,-0.00010933,-0.00003441,0.00702507,0.01593123,0.00649693,0.000
 78160,-0.00040466,0.00052595,0.00048365,-0.00070627,0.00024165,-0.0919
 9120,-0.09572311,-0.03479951,-0.01184147,-0.02523043,-0.01016284,0.097
 00561,-0.00004970,-0.00003177,-0.00003656,0.00000441,0.00000232,0.0000
 1017,0.00001103,0.00000232,0.00000118,0.00000737,-0.00004298,0.0000054
 2,0.00011453,-0.00002454,0.00008425,-0.00000202,-0.00000307,-0.0000086
 3,-0.00000884,-0.00000307,0.00000064,-0.00023823,-0.00014595,-0.000175
 24,-0.00000060,-0.00000150,0.00002017,0.00001907,-0.00000150,-0.000006
 58,0.00057339,-0.00029165,0.00042179,-0.00002998,0.00001042,0.00001165
 ,0.00000219,0.00001042,-0.00003209,-0.00138172,-0.00083111,-0.00101640
 ,0.00011358,-0.00002150,-0.00004678,-0.00001084,-0.00002150,0.00012236
 ,0.00463222,-0.00263762,0.00340748,-0.00001719,0.00033027,0.00010918,0
 .00009910,0.00033027,-0.00004892,-0.01201349,-0.02023164,-0.00883723,0
 .00037202,0.00077722,-0.00049694,-0.00036363,0.00077721,0.00050312,-0.
 09380762,-0.23736395,-0.06900580,0.00018462,0.00010552,0.00033424,0.10
 141624,0.25920180,0.00000701,0.00000934,0.00000648,0.00000013,-0.00000
 044,-0.00000046,0.00000003,-0.00000045,-0.00000010,-0.00000188,0.00000
 543,-0.00000141,-0.00002316,0.00001592,-0.00002312,-0.00000120,-0.0000
 0015,0.00000240,0.00000232,0.00000026,-0.00000096,0.00005319,0.0000569
 7,0.00004203,0.00000193,0.00000050,-0.00000608,-0.00000090,-0.00000132
 ,0.00000204,-0.00017192,0.00015920,-0.00012981,0.00000713,-0.00001064,
 -0.00000477,-0.00001187,-0.00000441,0.00001025,0.00014001,0.00064891,0
 .00070516,-0.00002659,0.00002034,0.00000156,0.00007249,-0.00010084,-0.
 00000098,-0.00149781,0.00147908,-0.00085252,-0.00020592,-0.00020507,-0
 .00009296,-0.00001526,0.00033818,0.00045694,0.00649687,0.01171907,0.00
 297220,0.00014872,-0.00061362,0.00024422,0.00061888,-0.00020359,0.0005
 4218,-0.03479951,-0.07041484,-0.07028302,0.00407633,0.00937770,0.00246
 479,0.03882074,0.07460279,0.07278894,0.00000487,0.00000138,0.00000184,
 -0.00000112,-0.00000021,-0.00000089,-0.00000235,0.00000012,-0.00000045
 ,-0.00000005,0.00000441,0.00000013,-0.00000519,-0.00000215,-0.00000285
 ,0.00000211,0.00000093,0.00000041,-0.00000038,0.00000016,0.00000136,0.
 00001059,-0.00000661,-0.00000392,-0.00000399,0.00000009,-0.00000070,-0
 .00000620,0.00000297,-0.00000058,-0.00000706,-0.00001725,0.00007339,0.
 00000168,0.00000054,0.00000394,0.00001617,0.00002288,0.00000198,-0.000
 07251,-0.00005915,-0.00006622,-0.00004616,0.00001178,-0.00001933,-0.00
 001447,-0.00005743,0.00008791,0.00010261,-0.00074957,0.00028964,0.0000
 3295,0.00004752,0.00013333,0.00030429,0.00012033,0.00031480,-0.0005311
 8,-0.00028170,-0.01790412,0.00043533,-0.00078693,-0.00021257,-0.000912
 08,0.00327764,-0.00150936,-0.04561140,0.00011103,0.00361034,0.00046803
 ,0.00084201,0.03029599,-0.00053375,0.00037409,-0.01368977,0.04636926,0
 .00000320,0.00000158,0.00000303,-0.00000021,0.00000088,-0.00000242,-0.
 00000110,0.00000033,0.00000047,-0.00000061,0.00000231,-0.00000044,-0.0
 0000574,0.00000174,-0.00000110,0.00000031,-0.00000215,-0.00000283,-0.0
 0000035,-0.00000040,0.00000059,0.00001450,0.00002254,0.00000301,-0.000
 00083,0.00001063,-0.00000895,-0.00000205,0.00000137,0.00000258,-0.0000
 2229,0.00003196,-0.00010232,-0.00000325,-0.00000422,0.00000154,-0.0000
 1349,-0.00005480,-0.00003774,0.00014513,-0.00009407,0.00000167,-0.0000
 1145,0.00001751,0.00001526,-0.00006457,0.00005886,-0.00027391,-0.00022
 481,0.00195396,0.00142310,-0.00004022,-0.00006534,-0.00006755,-0.00000
 102,-0.00030474,-0.00073082,-0.00087542,-0.00031203,0.02700764,-0.0003
 6060,0.00100324,-0.00067488,0.00285549,-0.00400652,0.00218042,0.000173
 27,-0.04573484,-0.00502520,-0.00014671,-0.00113740,0.00092786,0.001439
 69,0.00010559,-0.02687830,-0.00285687,0.04850400,0.00000896,0.00000682
 ,0.00000474,-0.00000089,-0.00000243,0.00000224,-0.00000284,-0.00000119
 ,-0.00000133,-0.00000008,0.00001018,-0.00000046,-0.00002106,-0.0000012
 6,-0.00002405,0.00000024,0.00000389,0.00000958,0.00000141,0.00000111,-
 0.00000123,0.00003173,0.00000280,0.00002022,-0.00000039,-0.00000554,0.
 00000783,-0.00000419,0.00000039,-0.00000299,-0.00006366,0.00003891,-0.
 00003672,0.00000725,0.00000470,-0.00000340,0.00000031,0.00004036,0.000
 03036,0.00006949,0.00009875,0.00047210,-0.00000907,-0.00000460,-0.0000
 2965,0.00007779,-0.00025405,0.00011582,0.00014234,-0.00113775,0.000441
 64,-0.00000154,0.00001518,-0.00000549,0.00021700,0.00084209,0.00057512
 ,0.00018776,-0.00043978,-0.01219495,-0.00046586,0.00001005,0.00075100,
 -0.00178498,0.00223506,0.00066767,0.00275874,-0.00336341,-0.30531072,-
 0.00029350,-0.00041632,-0.00889002,0.00054935,0.00007674,-0.00884300,-
 0.00140431,0.00223928,0.33224568\\-0.00000632,-0.00001764,-0.00000464,
 -0.00000040,0.00000109,-0.00000184,-0.00000187,0.00000109,0.00000016,0
 .00000402,-0.00000880,0.00000296,0.00001274,-0.00001512,0.00000937,0.0
 0000056,-0.00000056,0.00000250,0.00000255,-0.00000056,-0.00000021,-0.0
 0001199,-0.00001992,-0.00000882,-0.00000026,0.00000120,-0.00000692,-0.
 00000668,0.00000120,0.00000181,0.00001518,0.00001850,0.00001117,0.0000
 0711,-0.00000122,-0.00000363,-0.00000135,-0.00000122,0.00000787,0.0000
 0934,-0.00003742,0.00000687,-0.00000253,-0.00000993,0.00000959,0.00000
 840,-0.00000993,-0.00000527,0.00005272,0.00011205,0.00003876,-0.000006
 52,0.00000656,-0.00000550,-0.00000720,0.00000655,-0.00000457,-0.000078
 62,-0.00002444,-0.00005783,-0.00000528,-0.00000594,-0.00000049,-0.0000
 0204,-0.00000595,-0.00000489,0.00011985,-0.00012519,0.00008816,-0.0001
 3033,0.00000569,0.00002889,0.00004014,0.00012422,0.00002952,-0.0000112
 3,0.00000569,-0.00013302\\\@


 THE ... SCIENTISTS WERE WRONG ... THE MOST PERSISTENT PRINCIPLES 
 OF THE UNIVERSE WERE ACCIDENT AND ERROR.

                          -- FRANK HERBERT IN DUNE
 Job cpu time:       0 days  0 hours 44 minutes 28.3 seconds.
 Elapsed time:       0 days  0 hours 10 minutes 15.2 seconds.
 File lengths (MBytes):  RWF=    112 Int=      0 D2E=      0 Chk=      5 Scr=      1
 Normal termination of Gaussian 16 at Fri Feb 14 11:55:26 2020.
