Title section
SP        RHF                                                         CC-pVDZ
Number of atoms                            I               26
Info1-9                                    I   N=           9
          37          36           0           0           0         110
           1           1           2
Full Title                                 C   N=           2
Title section
Route                                      C   N=          10
#p int=(nobasistransform) nosymm pop=full punch=gamessinput
gfprint rhf/cc-pvdz 6D 10F SCF=(xqc, maxcycle=500)
Charge                                     I                0
Multiplicity                               I                1
Number of electrons                        I               66
Number of alpha electrons                  I               33
Number of beta electrons                   I               33
Number of basis functions                  I              210
Number of independent functions            I              210
Number of point charges in /Mol/           I                0
Number of translation vectors              I                0
Atomic numbers                             I   N=          26
           6           1           1           1           6           1
           1           6           1           1           6           1
           1           6           1           1           6           1
           1           6           1           1           6           1
           1           1
Nuclear charges                            R   N=          26
  6.00000000E+00  1.00000000E+00  1.00000000E+00  1.00000000E+00  6.00000000E+00
  1.00000000E+00  1.00000000E+00  6.00000000E+00  1.00000000E+00  1.00000000E+00
  6.00000000E+00  1.00000000E+00  1.00000000E+00  6.00000000E+00  1.00000000E+00
  1.00000000E+00  6.00000000E+00  1.00000000E+00  1.00000000E+00  6.00000000E+00
  1.00000000E+00  1.00000000E+00  6.00000000E+00  1.00000000E+00  1.00000000E+00
  1.00000000E+00
Current cartesian coordinates              R   N=          78
  0.00000000E+00  0.00000000E+00  0.00000000E+00  0.00000000E+00  0.00000000E+00
  2.08539993E+00  1.99080410E+00  0.00000000E+00 -6.20963211E-01 -8.55447836E-01
 -1.79148251E+00 -6.29270258E-01 -1.42603964E+00  2.28699459E+00 -1.04899863E+00
 -1.45084048E+00  2.19625253E+00 -3.13664054E+00 -3.42637032E+00  2.19625233E+00
 -4.51044820E-01 -2.99345790E-01  4.82271947E+00 -2.20198900E-01 -2.73480541E-01
  4.91392811E+00  1.86914559E+00  1.70292605E+00  4.91392831E+00 -8.17642032E-01
 -1.71379644E+00  7.12475736E+00 -1.26067264E+00 -3.71556804E+00  7.03169325E+00
 -6.63185248E-01 -1.73946784E+00  7.03169366E+00 -3.34955314E+00 -5.87147204E-01
  9.66023070E+00 -4.31905731E-01  1.41463322E+00  9.75330446E+00 -1.02937488E+00
 -5.61456888E-01  9.75330404E+00  1.65697931E+00 -2.00219917E+00  1.19619394E+01
 -1.47282178E+00 -4.00452583E+00  1.18701970E+01 -8.75491689E-01 -2.02818339E+00
  1.18701976E+01 -3.56218575E+00 -8.76730404E-01  1.44980998E+01 -6.44923218E-01
  1.12357733E+00  1.45894590E+01 -1.24286340E+00 -8.51930905E-01  1.45894583E+01
  1.44269658E+00 -2.30356365E+00  1.67841488E+01 -1.69450564E+00 -4.29483644E+00
  1.67837113E+01 -1.07365024E+00 -1.44887687E+00  1.85766262E+01 -1.06579522E+00
 -2.30379711E+00  1.67837119E+01 -3.78032364E+00
Number of symbols in /Mol/                 I                0
Force Field                                I                0
Atom Types                                 C   N=          26






Int Atom Types                             I   N=          26
           0           0           0           0           0           0
           0           0           0           0           0           0
           0           0           0           0           0           0
           0           0           0           0           0           0
           0           0
MM charges                                 R   N=          26
  0.00000000E+00  0.00000000E+00  0.00000000E+00  0.00000000E+00  0.00000000E+00
  0.00000000E+00  0.00000000E+00  0.00000000E+00  0.00000000E+00  0.00000000E+00
  0.00000000E+00  0.00000000E+00  0.00000000E+00  0.00000000E+00  0.00000000E+00
  0.00000000E+00  0.00000000E+00  0.00000000E+00  0.00000000E+00  0.00000000E+00
  0.00000000E+00  0.00000000E+00  0.00000000E+00  0.00000000E+00  0.00000000E+00
  0.00000000E+00
Integer atomic weights                     I   N=          26
          12           1           1           1          12           1
           1          12           1           1          12           1
           1          12           1           1          12           1
           1          12           1           1          12           1
           1           1
Real atomic weights                        R   N=          26
  1.20000000E+01  1.00782504E+00  1.00782504E+00  1.00782504E+00  1.20000000E+01
  1.00782504E+00  1.00782504E+00  1.20000000E+01  1.00782504E+00  1.00782504E+00
  1.20000000E+01  1.00782504E+00  1.00782504E+00  1.20000000E+01  1.00782504E+00
  1.00782504E+00  1.20000000E+01  1.00782504E+00  1.00782504E+00  1.20000000E+01
  1.00782504E+00  1.00782504E+00  1.20000000E+01  1.00782504E+00  1.00782504E+00
  1.00782504E+00
Atom fragment info                         I   N=          26
           0           0           0           0           0           0
           0           0           0           0           0           0
           0           0           0           0           0           0
           0           0           0           0           0           0
           0           0
Atom residue num                           I   N=          26
           0           0           0           0           0           0
           0           0           0           0           0           0
           0           0           0           0           0           0
           0           0           0           0           0           0
           0           0
Nuclear spins                              I   N=          26
           0           1           1           1           0           1
           1           0           1           1           0           1
           1           0           1           1           0           1
           1           0           1           1           0           1
           1           1
Nuclear ZEff                               R   N=          26
 -3.60000000E+00 -1.00000000E+00 -1.00000000E+00 -1.00000000E+00 -3.60000000E+00
 -1.00000000E+00 -1.00000000E+00 -3.60000000E+00 -1.00000000E+00 -1.00000000E+00
 -3.60000000E+00 -1.00000000E+00 -1.00000000E+00 -3.60000000E+00 -1.00000000E+00
 -1.00000000E+00 -3.60000000E+00 -1.00000000E+00 -1.00000000E+00 -3.60000000E+00
 -1.00000000E+00 -1.00000000E+00 -3.60000000E+00 -1.00000000E+00 -1.00000000E+00
 -1.00000000E+00
Nuclear ZNuc                               R   N=          26
  6.00000000E+00  1.00000000E+00  1.00000000E+00  1.00000000E+00  6.00000000E+00
  1.00000000E+00  1.00000000E+00  6.00000000E+00  1.00000000E+00  1.00000000E+00
  6.00000000E+00  1.00000000E+00  1.00000000E+00  6.00000000E+00  1.00000000E+00
  1.00000000E+00  6.00000000E+00  1.00000000E+00  1.00000000E+00  6.00000000E+00
  1.00000000E+00  1.00000000E+00  6.00000000E+00  1.00000000E+00  1.00000000E+00
  1.00000000E+00
Nuclear QMom                               R   N=          26
  0.00000000E+00  0.00000000E+00  0.00000000E+00  0.00000000E+00  0.00000000E+00
  0.00000000E+00  0.00000000E+00  0.00000000E+00  0.00000000E+00  0.00000000E+00
  0.00000000E+00  0.00000000E+00  0.00000000E+00  0.00000000E+00  0.00000000E+00
  0.00000000E+00  0.00000000E+00  0.00000000E+00  0.00000000E+00  0.00000000E+00
  0.00000000E+00  0.00000000E+00  0.00000000E+00  0.00000000E+00  0.00000000E+00
  0.00000000E+00
Nuclear GFac                               R   N=          26
  0.00000000E+00  2.79284600E+00  2.79284600E+00  2.79284600E+00  0.00000000E+00
  2.79284600E+00  2.79284600E+00  0.00000000E+00  2.79284600E+00  2.79284600E+00
  0.00000000E+00  2.79284600E+00  2.79284600E+00  0.00000000E+00  2.79284600E+00
  2.79284600E+00  0.00000000E+00  2.79284600E+00  2.79284600E+00  0.00000000E+00
  2.79284600E+00  2.79284600E+00  0.00000000E+00  2.79284600E+00  2.79284600E+00
  2.79284600E+00
MicOpt                                     I   N=          26
          -1          -1          -1          -1          -1          -1
          -1          -1          -1          -1          -1          -1
          -1          -1          -1          -1          -1          -1
          -1          -1          -1          -1          -1          -1
          -1          -1
Number of residues                         I                0
Number of secondary structures             I                0
Number of contracted shells                I              102
Number of primitive shells                 I              266
Pure/Cartesian d shells                    I                1
Pure/Cartesian f shells                    I                1
Highest angular momentum                   I                2
Largest degree of contraction              I                8
Shell types                                I   N=         102
           0           0           0           1           1           2
           0           0           1           0           0           1
           0           0           1           0           0           0
           1           1           2           0           0           1
           0           0           1           0           0           0
           1           1           2           0           0           1
           0           0           1           0           0           0
           1           1           2           0           0           1
           0           0           1           0           0           0
           1           1           2           0           0           1
           0           0           1           0           0           0
           1           1           2           0           0           1
           0           0           1           0           0           0
           1           1           2           0           0           1
           0           0           1           0           0           0
           1           1           2           0           0           1
           0           0           1           0           0           1
Number of primitives per shell             I   N=         102
           8           8           1           3           1           1
           3           1           1           3           1           1
           3           1           1           8           8           1
           3           1           1           3           1           1
           3           1           1           8           8           1
           3           1           1           3           1           1
           3           1           1           8           8           1
           3           1           1           3           1           1
           3           1           1           8           8           1
           3           1           1           3           1           1
           3           1           1           8           8           1
           3           1           1           3           1           1
           3           1           1           8           8           1
           3           1           1           3           1           1
           3           1           1           8           8           1
           3           1           1           3           1           1
           3           1           1           3           1           1
Shell to atom map                          I   N=         102
           1           1           1           1           1           1
           2           2           2           3           3           3
           4           4           4           5           5           5
           5           5           5           6           6           6
           7           7           7           8           8           8
           8           8           8           9           9           9
          10          10          10          11          11          11
          11          11          11          12          12          12
          13          13          13          14          14          14
          14          14          14          15          15          15
          16          16          16          17          17          17
          17          17          17          18          18          18
          19          19          19          20          20          20
          20          20          20          21          21          21
          22          22          22          23          23          23
          23          23          23          24          24          24
          25          25          25          26          26          26
Primitive exponents                        R   N=         266
  6.66500000E+03  1.00000000E+03  2.28000000E+02  6.47100000E+01  2.10600000E+01
  7.49500000E+00  2.79700000E+00  5.21500000E-01  6.66500000E+03  1.00000000E+03
  2.28000000E+02  6.47100000E+01  2.10600000E+01  7.49500000E+00  2.79700000E+00
  5.21500000E-01  1.59600000E-01  9.43900000E+00  2.00200000E+00  5.45600000E-01
  1.51700000E-01  5.50000000E-01  1.30100000E+01  1.96200000E+00  4.44600000E-01
  1.22000000E-01  7.27000000E-01  1.30100000E+01  1.96200000E+00  4.44600000E-01
  1.22000000E-01  7.27000000E-01  1.30100000E+01  1.96200000E+00  4.44600000E-01
  1.22000000E-01  7.27000000E-01  6.66500000E+03  1.00000000E+03  2.28000000E+02
  6.47100000E+01  2.10600000E+01  7.49500000E+00  2.79700000E+00  5.21500000E-01
  6.66500000E+03  1.00000000E+03  2.28000000E+02  6.47100000E+01  2.10600000E+01
  7.49500000E+00  2.79700000E+00  5.21500000E-01  1.59600000E-01  9.43900000E+00
  2.00200000E+00  5.45600000E-01  1.51700000E-01  5.50000000E-01  1.30100000E+01
  1.96200000E+00  4.44600000E-01  1.22000000E-01  7.27000000E-01  1.30100000E+01
  1.96200000E+00  4.44600000E-01  1.22000000E-01  7.27000000E-01  6.66500000E+03
  1.00000000E+03  2.28000000E+02  6.47100000E+01  2.10600000E+01  7.49500000E+00
  2.79700000E+00  5.21500000E-01  6.66500000E+03  1.00000000E+03  2.28000000E+02
  6.47100000E+01  2.10600000E+01  7.49500000E+00  2.79700000E+00  5.21500000E-01
  1.59600000E-01  9.43900000E+00  2.00200000E+00  5.45600000E-01  1.51700000E-01
  5.50000000E-01  1.30100000E+01  1.96200000E+00  4.44600000E-01  1.22000000E-01
  7.27000000E-01  1.30100000E+01  1.96200000E+00  4.44600000E-01  1.22000000E-01
  7.27000000E-01  6.66500000E+03  1.00000000E+03  2.28000000E+02  6.47100000E+01
  2.10600000E+01  7.49500000E+00  2.79700000E+00  5.21500000E-01  6.66500000E+03
  1.00000000E+03  2.28000000E+02  6.47100000E+01  2.10600000E+01  7.49500000E+00
  2.79700000E+00  5.21500000E-01  1.59600000E-01  9.43900000E+00  2.00200000E+00
  5.45600000E-01  1.51700000E-01  5.50000000E-01  1.30100000E+01  1.96200000E+00
  4.44600000E-01  1.22000000E-01  7.27000000E-01  1.30100000E+01  1.96200000E+00
  4.44600000E-01  1.22000000E-01  7.27000000E-01  6.66500000E+03  1.00000000E+03
  2.28000000E+02  6.47100000E+01  2.10600000E+01  7.49500000E+00  2.79700000E+00
  5.21500000E-01  6.66500000E+03  1.00000000E+03  2.28000000E+02  6.47100000E+01
  2.10600000E+01  7.49500000E+00  2.79700000E+00  5.21500000E-01  1.59600000E-01
  9.43900000E+00  2.00200000E+00  5.45600000E-01  1.51700000E-01  5.50000000E-01
  1.30100000E+01  1.96200000E+00  4.44600000E-01  1.22000000E-01  7.27000000E-01
  1.30100000E+01  1.96200000E+00  4.44600000E-01  1.22000000E-01  7.27000000E-01
  6.66500000E+03  1.00000000E+03  2.28000000E+02  6.47100000E+01  2.10600000E+01
  7.49500000E+00  2.79700000E+00  5.21500000E-01  6.66500000E+03  1.00000000E+03
  2.28000000E+02  6.47100000E+01  2.10600000E+01  7.49500000E+00  2.79700000E+00
  5.21500000E-01  1.59600000E-01  9.43900000E+00  2.00200000E+00  5.45600000E-01
  1.51700000E-01  5.50000000E-01  1.30100000E+01  1.96200000E+00  4.44600000E-01
  1.22000000E-01  7.27000000E-01  1.30100000E+01  1.96200000E+00  4.44600000E-01
  1.22000000E-01  7.27000000E-01  6.66500000E+03  1.00000000E+03  2.28000000E+02
  6.47100000E+01  2.10600000E+01  7.49500000E+00  2.79700000E+00  5.21500000E-01
  6.66500000E+03  1.00000000E+03  2.28000000E+02  6.47100000E+01  2.10600000E+01
  7.49500000E+00  2.79700000E+00  5.21500000E-01  1.59600000E-01  9.43900000E+00
  2.00200000E+00  5.45600000E-01  1.51700000E-01  5.50000000E-01  1.30100000E+01
  1.96200000E+00  4.44600000E-01  1.22000000E-01  7.27000000E-01  1.30100000E+01
  1.96200000E+00  4.44600000E-01  1.22000000E-01  7.27000000E-01  6.66500000E+03
  1.00000000E+03  2.28000000E+02  6.47100000E+01  2.10600000E+01  7.49500000E+00
  2.79700000E+00  5.21500000E-01  6.66500000E+03  1.00000000E+03  2.28000000E+02
  6.47100000E+01  2.10600000E+01  7.49500000E+00  2.79700000E+00  5.21500000E-01
  1.59600000E-01  9.43900000E+00  2.00200000E+00  5.45600000E-01  1.51700000E-01
  5.50000000E-01  1.30100000E+01  1.96200000E+00  4.44600000E-01  1.22000000E-01
  7.27000000E-01  1.30100000E+01  1.96200000E+00  4.44600000E-01  1.22000000E-01
  7.27000000E-01  1.30100000E+01  1.96200000E+00  4.44600000E-01  1.22000000E-01
  7.27000000E-01
Contraction coefficients                   R   N=         266
  6.91583963E-04  5.32579615E-03  2.70607210E-02  1.01656846E-01  2.74574824E-01
  4.48294319E-01  2.84902611E-01  1.51948592E-02 -2.93269653E-04 -2.31803547E-03
 -1.14997860E-02 -4.68267270E-02 -1.28466169E-01 -3.01266272E-01 -2.55630702E-01
  1.09379336E+00  1.00000000E+00  5.69792516E-02  3.13207212E-01  7.60376742E-01
  1.00000000E+00  1.00000000E+00  3.34987264E-02  2.34800801E-01  8.13682958E-01
  1.00000000E+00  1.00000000E+00  3.34987264E-02  2.34800801E-01  8.13682958E-01
  1.00000000E+00  1.00000000E+00  3.34987264E-02  2.34800801E-01  8.13682958E-01
  1.00000000E+00  1.00000000E+00  6.91583963E-04  5.32579615E-03  2.70607210E-02
  1.01656846E-01  2.74574824E-01  4.48294319E-01  2.84902611E-01  1.51948592E-02
 -2.93269653E-04 -2.31803547E-03 -1.14997860E-02 -4.68267270E-02 -1.28466169E-01
 -3.01266272E-01 -2.55630702E-01  1.09379336E+00  1.00000000E+00  5.69792516E-02
  3.13207212E-01  7.60376742E-01  1.00000000E+00  1.00000000E+00  3.34987264E-02
  2.34800801E-01  8.13682958E-01  1.00000000E+00  1.00000000E+00  3.34987264E-02
  2.34800801E-01  8.13682958E-01  1.00000000E+00  1.00000000E+00  6.91583963E-04
  5.32579615E-03  2.70607210E-02  1.01656846E-01  2.74574824E-01  4.48294319E-01
  2.84902611E-01  1.51948592E-02 -2.93269653E-04 -2.31803547E-03 -1.14997860E-02
 -4.68267270E-02 -1.28466169E-01 -3.01266272E-01 -2.55630702E-01  1.09379336E+00
  1.00000000E+00  5.69792516E-02  3.13207212E-01  7.60376742E-01  1.00000000E+00
  1.00000000E+00  3.34987264E-02  2.34800801E-01  8.13682958E-01  1.00000000E+00
  1.00000000E+00  3.34987264E-02  2.34800801E-01  8.13682958E-01  1.00000000E+00
  1.00000000E+00  6.91583963E-04  5.32579615E-03  2.70607210E-02  1.01656846E-01
  2.74574824E-01  4.48294319E-01  2.84902611E-01  1.51948592E-02 -2.93269653E-04
 -2.31803547E-03 -1.14997860E-02 -4.68267270E-02 -1.28466169E-01 -3.01266272E-01
 -2.55630702E-01  1.09379336E+00  1.00000000E+00  5.69792516E-02  3.13207212E-01
  7.60376742E-01  1.00000000E+00  1.00000000E+00  3.34987264E-02  2.34800801E-01
  8.13682958E-01  1.00000000E+00  1.00000000E+00  3.34987264E-02  2.34800801E-01
  8.13682958E-01  1.00000000E+00  1.00000000E+00  6.91583963E-04  5.32579615E-03
  2.70607210E-02  1.01656846E-01  2.74574824E-01  4.48294319E-01  2.84902611E-01
  1.51948592E-02 -2.93269653E-04 -2.31803547E-03 -1.14997860E-02 -4.68267270E-02
 -1.28466169E-01 -3.01266272E-01 -2.55630702E-01  1.09379336E+00  1.00000000E+00
  5.69792516E-02  3.13207212E-01  7.60376742E-01  1.00000000E+00  1.00000000E+00
  3.34987264E-02  2.34800801E-01  8.13682958E-01  1.00000000E+00  1.00000000E+00
  3.34987264E-02  2.34800801E-01  8.13682958E-01  1.00000000E+00  1.00000000E+00
  6.91583963E-04  5.32579615E-03  2.70607210E-02  1.01656846E-01  2.74574824E-01
  4.48294319E-01  2.84902611E-01  1.51948592E-02 -2.93269653E-04 -2.31803547E-03
 -1.14997860E-02 -4.68267270E-02 -1.28466169E-01 -3.01266272E-01 -2.55630702E-01
  1.09379336E+00  1.00000000E+00  5.69792516E-02  3.13207212E-01  7.60376742E-01
  1.00000000E+00  1.00000000E+00  3.34987264E-02  2.34800801E-01  8.13682958E-01
  1.00000000E+00  1.00000000E+00  3.34987264E-02  2.34800801E-01  8.13682958E-01
  1.00000000E+00  1.00000000E+00  6.91583963E-04  5.32579615E-03  2.70607210E-02
  1.01656846E-01  2.74574824E-01  4.48294319E-01  2.84902611E-01  1.51948592E-02
 -2.93269653E-04 -2.31803547E-03 -1.14997860E-02 -4.68267270E-02 -1.28466169E-01
 -3.01266272E-01 -2.55630702E-01  1.09379336E+00  1.00000000E+00  5.69792516E-02
  3.13207212E-01  7.60376742E-01  1.00000000E+00  1.00000000E+00  3.34987264E-02
  2.34800801E-01  8.13682958E-01  1.00000000E+00  1.00000000E+00  3.34987264E-02
  2.34800801E-01  8.13682958E-01  1.00000000E+00  1.00000000E+00  6.91583963E-04
  5.32579615E-03  2.70607210E-02  1.01656846E-01  2.74574824E-01  4.48294319E-01
  2.84902611E-01  1.51948592E-02 -2.93269653E-04 -2.31803547E-03 -1.14997860E-02
 -4.68267270E-02 -1.28466169E-01 -3.01266272E-01 -2.55630702E-01  1.09379336E+00
  1.00000000E+00  5.69792516E-02  3.13207212E-01  7.60376742E-01  1.00000000E+00
  1.00000000E+00  3.34987264E-02  2.34800801E-01  8.13682958E-01  1.00000000E+00
  1.00000000E+00  3.34987264E-02  2.34800801E-01  8.13682958E-01  1.00000000E+00
  1.00000000E+00  3.34987264E-02  2.34800801E-01  8.13682958E-01  1.00000000E+00
  1.00000000E+00
Coordinates of each shell                  R   N=         306
  0.00000000E+00  0.00000000E+00  0.00000000E+00  0.00000000E+00  0.00000000E+00
  0.00000000E+00  0.00000000E+00  0.00000000E+00  0.00000000E+00  0.00000000E+00
  0.00000000E+00  0.00000000E+00  0.00000000E+00  0.00000000E+00  0.00000000E+00
  0.00000000E+00  0.00000000E+00  0.00000000E+00  0.00000000E+00  0.00000000E+00
  2.08539993E+00  0.00000000E+00  0.00000000E+00  2.08539993E+00  0.00000000E+00
  0.00000000E+00  2.08539993E+00  1.99080410E+00  0.00000000E+00 -6.20963211E-01
  1.99080410E+00  0.00000000E+00 -6.20963211E-01  1.99080410E+00  0.00000000E+00
 -6.20963211E-01 -8.55447836E-01 -1.79148251E+00 -6.29270258E-01 -8.55447836E-01
 -1.79148251E+00 -6.29270258E-01 -8.55447836E-01 -1.79148251E+00 -6.29270258E-01
 -1.42603964E+00  2.28699459E+00 -1.04899863E+00 -1.42603964E+00  2.28699459E+00
 -1.04899863E+00 -1.42603964E+00  2.28699459E+00 -1.04899863E+00 -1.42603964E+00
  2.28699459E+00 -1.04899863E+00 -1.42603964E+00  2.28699459E+00 -1.04899863E+00
 -1.42603964E+00  2.28699459E+00 -1.04899863E+00 -1.45084048E+00  2.19625253E+00
 -3.13664054E+00 -1.45084048E+00  2.19625253E+00 -3.13664054E+00 -1.45084048E+00
  2.19625253E+00 -3.13664054E+00 -3.42637032E+00  2.19625233E+00 -4.51044820E-01
 -3.42637032E+00  2.19625233E+00 -4.51044820E-01 -3.42637032E+00  2.19625233E+00
 -4.51044820E-01 -2.99345790E-01  4.82271947E+00 -2.20198900E-01 -2.99345790E-01
  4.82271947E+00 -2.20198900E-01 -2.99345790E-01  4.82271947E+00 -2.20198900E-01
 -2.99345790E-01  4.82271947E+00 -2.20198900E-01 -2.99345790E-01  4.82271947E+00
 -2.20198900E-01 -2.99345790E-01  4.82271947E+00 -2.20198900E-01 -2.73480541E-01
  4.91392811E+00  1.86914559E+00 -2.73480541E-01  4.91392811E+00  1.86914559E+00
 -2.73480541E-01  4.91392811E+00  1.86914559E+00  1.70292605E+00  4.91392831E+00
 -8.17642032E-01  1.70292605E+00  4.91392831E+00 -8.17642032E-01  1.70292605E+00
  4.91392831E+00 -8.17642032E-01 -1.71379644E+00  7.12475736E+00 -1.26067264E+00
 -1.71379644E+00  7.12475736E+00 -1.26067264E+00 -1.71379644E+00  7.12475736E+00
 -1.26067264E+00 -1.71379644E+00  7.12475736E+00 -1.26067264E+00 -1.71379644E+00
  7.12475736E+00 -1.26067264E+00 -1.71379644E+00  7.12475736E+00 -1.26067264E+00
 -3.71556804E+00  7.03169325E+00 -6.63185248E-01 -3.71556804E+00  7.03169325E+00
 -6.63185248E-01 -3.71556804E+00  7.03169325E+00 -6.63185248E-01 -1.73946784E+00
  7.03169366E+00 -3.34955314E+00 -1.73946784E+00  7.03169366E+00 -3.34955314E+00
 -1.73946784E+00  7.03169366E+00 -3.34955314E+00 -5.87147204E-01  9.66023070E+00
 -4.31905731E-01 -5.87147204E-01  9.66023070E+00 -4.31905731E-01 -5.87147204E-01
  9.66023070E+00 -4.31905731E-01 -5.87147204E-01  9.66023070E+00 -4.31905731E-01
 -5.87147204E-01  9.66023070E+00 -4.31905731E-01 -5.87147204E-01  9.66023070E+00
 -4.31905731E-01  1.41463322E+00  9.75330446E+00 -1.02937488E+00  1.41463322E+00
  9.75330446E+00 -1.02937488E+00  1.41463322E+00  9.75330446E+00 -1.02937488E+00
 -5.61456888E-01  9.75330404E+00  1.65697931E+00 -5.61456888E-01  9.75330404E+00
  1.65697931E+00 -5.61456888E-01  9.75330404E+00  1.65697931E+00 -2.00219917E+00
  1.19619394E+01 -1.47282178E+00 -2.00219917E+00  1.19619394E+01 -1.47282178E+00
 -2.00219917E+00  1.19619394E+01 -1.47282178E+00 -2.00219917E+00  1.19619394E+01
 -1.47282178E+00 -2.00219917E+00  1.19619394E+01 -1.47282178E+00 -2.00219917E+00
  1.19619394E+01 -1.47282178E+00 -4.00452583E+00  1.18701970E+01 -8.75491689E-01
 -4.00452583E+00  1.18701970E+01 -8.75491689E-01 -4.00452583E+00  1.18701970E+01
 -8.75491689E-01 -2.02818339E+00  1.18701976E+01 -3.56218575E+00 -2.02818339E+00
  1.18701976E+01 -3.56218575E+00 -2.02818339E+00  1.18701976E+01 -3.56218575E+00
 -8.76730404E-01  1.44980998E+01 -6.44923218E-01 -8.76730404E-01  1.44980998E+01
 -6.44923218E-01 -8.76730404E-01  1.44980998E+01 -6.44923218E-01 -8.76730404E-01
  1.44980998E+01 -6.44923218E-01 -8.76730404E-01  1.44980998E+01 -6.44923218E-01
 -8.76730404E-01  1.44980998E+01 -6.44923218E-01  1.12357733E+00  1.45894590E+01
 -1.24286340E+00  1.12357733E+00  1.45894590E+01 -1.24286340E+00  1.12357733E+00
  1.45894590E+01 -1.24286340E+00 -8.51930905E-01  1.45894583E+01  1.44269658E+00
 -8.51930905E-01  1.45894583E+01  1.44269658E+00 -8.51930905E-01  1.45894583E+01
  1.44269658E+00 -2.30356365E+00  1.67841488E+01 -1.69450564E+00 -2.30356365E+00
  1.67841488E+01 -1.69450564E+00 -2.30356365E+00  1.67841488E+01 -1.69450564E+00
 -2.30356365E+00  1.67841488E+01 -1.69450564E+00 -2.30356365E+00  1.67841488E+01
 -1.69450564E+00 -2.30356365E+00  1.67841488E+01 -1.69450564E+00 -4.29483644E+00
  1.67837113E+01 -1.07365024E+00 -4.29483644E+00  1.67837113E+01 -1.07365024E+00
 -4.29483644E+00  1.67837113E+01 -1.07365024E+00 -1.44887687E+00  1.85766262E+01
 -1.06579522E+00 -1.44887687E+00  1.85766262E+01 -1.06579522E+00 -1.44887687E+00
  1.85766262E+01 -1.06579522E+00 -2.30379711E+00  1.67837119E+01 -3.78032364E+00
 -2.30379711E+00  1.67837119E+01 -3.78032364E+00 -2.30379711E+00  1.67837119E+01
 -3.78032364E+00
Num ILSW                                   I              100
ILSW                                       I   N=         100
           0           1           0           0           2           0
           0           0           0           0           0          -1
           5           0           0           1           0           0
           0           0           0           0           0           0
           1           1           0           0           0           0
           0           0      100000           0          -1           0
           0           0           0           0           0           0
           0           0           0           1           0           0
           0 -2000000000           1           0           0           0
           0           0           4          52           0           0
           0           0           0           0           0           0
           0           0           0          26           0           1
           0           0           0           0           0           0
           0           0           0           0           0           0
           0           0           0           0           0           0
           0           0           0           0           0           0
           0           0           0           0
Num RLSW                                   I               52
RLSW                                       R   N=          52
  1.00000000E+00  1.00000000E+00  1.00000000E+00  1.00000000E+00  1.00000000E+00
  0.00000000E+00  0.00000000E+00  1.00000000E+00  0.00000000E+00  0.00000000E+00
  0.00000000E+00  0.00000000E+00  1.00000000E+00  0.00000000E+00  0.00000000E+00
  0.00000000E+00  0.00000000E+00  1.00000000E+00  0.00000000E+00  0.00000000E+00
  0.00000000E+00  0.00000000E+00  1.00000000E+00  0.00000000E+00  0.00000000E+00
  0.00000000E+00  0.00000000E+00  1.00000000E+00  0.00000000E+00  0.00000000E+00
  0.00000000E+00  0.00000000E+00  1.00000000E+00  0.00000000E+00  0.00000000E+00
  0.00000000E+00  0.00000000E+00  0.00000000E+00  1.00000000E+00  1.00000000E+00
  0.00000000E+00  1.00000000E+00  0.00000000E+00  0.00000000E+00  0.00000000E+00
  0.00000000E+00  0.00000000E+00  0.00000000E+00  0.00000000E+00  0.00000000E+00
  0.00000000E+00  0.00000000E+00
MxBond                                     I                4
NBond                                      I   N=          26
           4           1           1           1           4           1
           1           4           1           1           4           1
           1           4           1           1           4           1
           1           4           1           1           4           1
           1           1
IBond                                      I   N=         104
           2           3           4           5           1           0
           0           0           1           0           0           0
           1           0           0           0           1           6
           7           8           5           0           0           0