 Entering Gaussian System, Link 0=g16
 Input=C4H10_opt.gjf
 Output=C4H10_opt.log
 Initial command:
 /home/qingchun/software/g16A_modified_by_qingchun/g16/l1.exe "/scratch/qingchun/gaussian/Gau-31057.inp" -scrdir="/scratch/qingchun/gaussian/"
 Entering Link 1 = /home/qingchun/software/g16A_modified_by_qingchun/g16/l1.exe PID=     31058.
  
 Copyright (c) 1988,1990,1992,1993,1995,1998,2003,2009,2016,
            Gaussian, Inc.  All Rights Reserved.
  
 This is part of the Gaussian(R) 16 program.  It is based on
 the Gaussian(R) 09 system (copyright 2009, Gaussian, Inc.),
 the Gaussian(R) 03 system (copyright 2003, Gaussian, Inc.),
 the Gaussian(R) 98 system (copyright 1998, Gaussian, Inc.),
 the Gaussian(R) 94 system (copyright 1995, Gaussian, Inc.),
 the Gaussian 92(TM) system (copyright 1992, Gaussian, Inc.),
 the Gaussian 90(TM) system (copyright 1990, Gaussian, Inc.),
 the Gaussian 88(TM) system (copyright 1988, Gaussian, Inc.),
 the Gaussian 86(TM) system (copyright 1986, Carnegie Mellon
 University), and the Gaussian 82(TM) system (copyright 1983,
 Carnegie Mellon University). Gaussian is a federally registered
 trademark of Gaussian, Inc.
  
 This software contains proprietary and confidential information,
 including trade secrets, belonging to Gaussian, Inc.
  
 This software is provided under written license and may be
 used, copied, transmitted, or stored only in accord with that
 written license.
  
 The following legend is applicable only to US Government
 contracts under FAR:
  
                    RESTRICTED RIGHTS LEGEND
  
 Use, reproduction and disclosure by the US Government is
 subject to restrictions as set forth in subparagraphs (a)
 and (c) of the Commercial Computer Software - Restricted
 Rights clause in FAR 52.227-19.
  
 Gaussian, Inc.
 340 Quinnipiac St., Bldg. 40, Wallingford CT 06492
  
  
 ---------------------------------------------------------------
 Warning -- This program may not be used in any manner that
 competes with the business of Gaussian, Inc. or will provide
 assistance to any competitor of Gaussian, Inc.  The licensee
 of this program is prohibited from giving any competitor of
 Gaussian, Inc. access to this program.  By using this program,
 the user acknowledges that Gaussian, Inc. is engaged in the
 business of creating and licensing software in the field of
 computational chemistry and represents and warrants to the
 licensee that it is not a competitor of Gaussian, Inc. and that
 it will not use this program in any manner prohibited above.
 ---------------------------------------------------------------
  

 Cite this work as:
 Gaussian 16, Revision A.03,
 M. J. Frisch, G. W. Trucks, H. B. Schlegel, G. E. Scuseria, 
 M. A. Robb, J. R. Cheeseman, G. Scalmani, V. Barone, 
 G. A. Petersson, H. Nakatsuji, X. Li, M. Caricato, A. V. Marenich, 
 J. Bloino, B. G. Janesko, R. Gomperts, B. Mennucci, H. P. Hratchian, 
 J. V. Ortiz, A. F. Izmaylov, J. L. Sonnenberg, D. Williams-Young, 
 F. Ding, F. Lipparini, F. Egidi, J. Goings, B. Peng, A. Petrone, 
 T. Henderson, D. Ranasinghe, V. G. Zakrzewski, J. Gao, N. Rega, 
 G. Zheng, W. Liang, M. Hada, M. Ehara, K. Toyota, R. Fukuda, 
 J. Hasegawa, M. Ishida, T. Nakajima, Y. Honda, O. Kitao, H. Nakai, 
 T. Vreven, K. Throssell, J. A. Montgomery, Jr., J. E. Peralta, 
 F. Ogliaro, M. J. Bearpark, J. J. Heyd, E. N. Brothers, K. N. Kudin, 
 V. N. Staroverov, T. A. Keith, R. Kobayashi, J. Normand, 
 K. Raghavachari, A. P. Rendell, J. C. Burant, S. S. Iyengar, 
 J. Tomasi, M. Cossi, J. M. Millam, M. Klene, C. Adamo, R. Cammi, 
 J. W. Ochterski, R. L. Martin, K. Morokuma, O. Farkas, 
 J. B. Foresman, and D. J. Fox, Gaussian, Inc., Wallingford CT, 2016.
 
 ******************************************
 Gaussian 16:  ES64L-G16RevA.03 25-Dec-2016
                19-Jun-2020 
 ******************************************
 %nprocshared=8
 Will use up to    8 processors via shared memory.
 %mem=30GB
 %chk=C4H10_opt.chk
 ------------------------
 # opt freq b3lyp/cc-pVDZ
 ------------------------
 1/18=20,19=15,26=3,38=1/1,3;
 2/9=110,12=2,17=6,18=5,40=1/2;
 3/5=16,11=2,25=1,30=1,71=1,74=-5/1,2,3;
 4//1;
 5/5=2,38=5/2;
 6/7=2,8=2,9=2,10=2,28=1/1;
 7//1,2,3,16;
 1/18=20,19=15,26=3/3(2);
 2/9=110/2;
 99//99;
 2/9=110/2;
 3/5=16,11=2,25=1,30=1,71=1,74=-5/1,2,3;
 4/5=5,16=3,69=1/1;
 5/5=2,38=5/2;
 7//1,2,3,16;
 1/18=20,19=15,26=3/3(-5);
 2/9=110/2;
 6/7=2,8=2,9=2,10=2,19=2,28=1/1;
 99/9=1/99;
 -------
 cc-pVDZ
 -------
 Symbolic Z-matrix:
 Charge =  0 Multiplicity = 1
 C                    -4.05085  -0.45763   0. 
 H                    -3.69419  -1.46644   0. 
 H                    -3.69417   0.04677  -0.87365 
 H                    -5.12085  -0.45761   0. 
 C                    -3.53751   0.26833   1.2574 
 H                    -2.46751   0.26662   1.25838 
 H                    -3.89577  -0.23494   2.13106 
 C                    -4.04852   1.72107   1.256 
 H                    -5.11852   1.72278   1.25464 
 H                    -3.68995   2.22445   0.38254 
 C                    -3.53562   2.44687   2.51367 
 H                    -2.46562   2.44509   2.51507 
 H                    -3.89061   3.45627   2.51265 
 H                    -3.89427   1.94354   3.38714 
 

 GradGradGradGradGradGradGradGradGradGradGradGradGradGradGradGradGradGrad
 Berny optimization.
 Initialization pass.
                           ----------------------------
                           !    Initial Parameters    !
                           ! (Angstroms and Degrees)  !
 --------------------------                            --------------------------
 ! Name  Definition              Value          Derivative Info.                !
 --------------------------------------------------------------------------------
 ! R1    R(1,2)                  1.07           estimate D2E/DX2                !
 ! R2    R(1,3)                  1.07           estimate D2E/DX2                !
 ! R3    R(1,4)                  1.07           estimate D2E/DX2                !
 ! R4    R(1,5)                  1.54           estimate D2E/DX2                !
 ! R5    R(5,6)                  1.07           estimate D2E/DX2                !
 ! R6    R(5,7)                  1.07           estimate D2E/DX2                !
 ! R7    R(5,8)                  1.54           estimate D2E/DX2                !
 ! R8    R(8,9)                  1.07           estimate D2E/DX2                !
 ! R9    R(8,10)                 1.07           estimate D2E/DX2                !
 ! R10   R(8,11)                 1.54           estimate D2E/DX2                !
 ! R11   R(11,12)                1.07           estimate D2E/DX2                !
 ! R12   R(11,13)                1.07           estimate D2E/DX2                !
 ! R13   R(11,14)                1.07           estimate D2E/DX2                !
 ! A1    A(2,1,3)              109.4712         estimate D2E/DX2                !
 ! A2    A(2,1,4)              109.4712         estimate D2E/DX2                !
 ! A3    A(2,1,5)              109.4712         estimate D2E/DX2                !
 ! A4    A(3,1,4)              109.4712         estimate D2E/DX2                !
 ! A5    A(3,1,5)              109.4713         estimate D2E/DX2                !
 ! A6    A(4,1,5)              109.4712         estimate D2E/DX2                !
 ! A7    A(1,5,6)              109.4712         estimate D2E/DX2                !
 ! A8    A(1,5,7)              109.4712         estimate D2E/DX2                !
 ! A9    A(1,5,8)              109.4712         estimate D2E/DX2                !
 ! A10   A(6,5,7)              109.4712         estimate D2E/DX2                !
 ! A11   A(6,5,8)              109.4713         estimate D2E/DX2                !
 ! A12   A(7,5,8)              109.4712         estimate D2E/DX2                !
 ! A13   A(5,8,9)              109.4712         estimate D2E/DX2                !
 ! A14   A(5,8,10)             109.4712         estimate D2E/DX2                !
 ! A15   A(5,8,11)             109.4712         estimate D2E/DX2                !
 ! A16   A(9,8,10)             109.4712         estimate D2E/DX2                !
 ! A17   A(9,8,11)             109.4713         estimate D2E/DX2                !
 ! A18   A(10,8,11)            109.4712         estimate D2E/DX2                !
 ! A19   A(8,11,12)            109.4712         estimate D2E/DX2                !
 ! A20   A(8,11,13)            109.4712         estimate D2E/DX2                !
 ! A21   A(8,11,14)            109.4712         estimate D2E/DX2                !
 ! A22   A(12,11,13)           109.4713         estimate D2E/DX2                !
 ! A23   A(12,11,14)           109.4712         estimate D2E/DX2                !
 ! A24   A(13,11,14)           109.4712         estimate D2E/DX2                !
 ! D1    D(2,1,5,6)             59.8889         estimate D2E/DX2                !
 ! D2    D(2,1,5,7)            -60.1111         estimate D2E/DX2                !
 ! D3    D(2,1,5,8)            179.8889         estimate D2E/DX2                !
 ! D4    D(3,1,5,6)            -60.1111         estimate D2E/DX2                !
 ! D5    D(3,1,5,7)            179.8889         estimate D2E/DX2                !
 ! D6    D(3,1,5,8)             59.8889         estimate D2E/DX2                !
 ! D7    D(4,1,5,6)            179.8889         estimate D2E/DX2                !
 ! D8    D(4,1,5,7)             59.8889         estimate D2E/DX2                !
 ! D9    D(4,1,5,8)            -60.1111         estimate D2E/DX2                !
 ! D10   D(1,5,8,9)             59.9786         estimate D2E/DX2                !
 ! D11   D(1,5,8,10)           -60.0214         estimate D2E/DX2                !
 ! D12   D(1,5,8,11)           179.9786         estimate D2E/DX2                !
 ! D13   D(6,5,8,9)            179.9786         estimate D2E/DX2                !
 ! D14   D(6,5,8,10)            59.9786         estimate D2E/DX2                !
 ! D15   D(6,5,8,11)           -60.0214         estimate D2E/DX2                !
 ! D16   D(7,5,8,9)            -60.0214         estimate D2E/DX2                !
 ! D17   D(7,5,8,10)           179.9786         estimate D2E/DX2                !
 ! D18   D(7,5,8,11)            59.9786         estimate D2E/DX2                !
 ! D19   D(5,8,11,12)           59.9952         estimate D2E/DX2                !
 ! D20   D(5,8,11,13)          179.9953         estimate D2E/DX2                !
 ! D21   D(5,8,11,14)          -60.0048         estimate D2E/DX2                !
 ! D22   D(9,8,11,12)          179.9952         estimate D2E/DX2                !
 ! D23   D(9,8,11,13)          -60.0048         estimate D2E/DX2                !
 ! D24   D(9,8,11,14)           59.9952         estimate D2E/DX2                !
 ! D25   D(10,8,11,12)         -60.0048         estimate D2E/DX2                !
 ! D26   D(10,8,11,13)          59.9953         estimate D2E/DX2                !
 ! D27   D(10,8,11,14)         179.9952         estimate D2E/DX2                !
 --------------------------------------------------------------------------------
 Trust Radius=3.00D-01 FncErr=1.00D-07 GrdErr=1.00D-06 EigMax=2.50D+02 EigMin=1.00D-04
 Number of steps in this run=     74 maximum allowed number of steps=    100.
 GradGradGradGradGradGradGradGradGradGradGradGradGradGradGradGradGradGrad

                          Input orientation:                          
 ---------------------------------------------------------------------
 Center     Atomic      Atomic             Coordinates (Angstroms)
 Number     Number       Type             X           Y           Z
 ---------------------------------------------------------------------
      1          6           0       -4.050848   -0.457627    0.000000
      2          1           0       -3.694193   -1.466437    0.000000
      3          1           0       -3.694175    0.046771   -0.873652
      4          1           0       -5.120848   -0.457614    0.000000
      5          6           0       -3.537505    0.268329    1.257405
      6          1           0       -2.467507    0.266622    1.258383
      7          1           0       -3.895774   -0.234939    2.131055
      8          6           0       -4.048521    1.721072    1.255998
      9          1           0       -5.118519    1.722778    1.254643
     10          1           0       -3.689945    2.224448    0.382536
     11          6           0       -3.535622    2.446873    2.513673
     12          1           0       -2.465624    2.445093    2.515070
     13          1           0       -3.890610    3.456270    2.512654
     14          1           0       -3.894266    1.943545    3.387135
 ---------------------------------------------------------------------
                    Distance matrix (angstroms):
                    1          2          3          4          5
     1  C    0.000000
     2  H    1.070000   0.000000
     3  H    1.070000   1.747302   0.000000
     4  H    1.070000   1.747303   1.747303   0.000000
     5  C    1.540000   2.148263   2.148263   2.148263   0.000000
     6  H    2.148263   2.468153   2.469538   3.024609   1.070000
     7  H    2.148263   2.469538   3.024610   2.468154   1.070000
     8  C    2.514809   3.444313   2.732078   2.733877   1.540000
     9  H    2.732804   3.711324   3.060620   2.515600   2.148263
    10  H    2.733151   3.710658   2.514021   3.063865   2.148263
    11  C    3.875581   4.653782   4.154467   4.155423   2.514809
    12  H    4.155033   4.809889   4.329517   4.669207   2.732938
    13  H    4.653783   5.530375   4.809401   4.810967   3.444314
    14  H    4.154856   4.810477   4.668200   4.329290   2.733016
                    6          7          8          9         10
     6  H    0.000000
     7  H    1.747303   0.000000
     8  C    2.148263   2.148263   0.000000
     9  H    3.024610   2.468979   1.070000   0.000000
    10  H    2.468713   3.024610   1.070000   1.747303   0.000000
    11  C    2.733151   2.732804   1.540000   2.148263   2.148263
    12  H    2.514956   3.061923   2.148263   3.024610   2.468875
    13  H    3.711101   3.710885   2.148263   2.468876   2.468816
    14  H    3.062563   2.514663   2.148263   2.468817   3.024610
                   11         12         13         14
    11  C    0.000000
    12  H    1.070000   0.000000
    13  H    1.070000   1.747303   0.000000
    14  H    1.070000   1.747303   1.747303   0.000000
 Stoichiometry    C4H10
 Framework group  C1[X(C4H10)]
 Deg. of freedom    36
 Full point group                 C1      NOp   1
 Largest Abelian subgroup         C1      NOp   1
 Largest concise Abelian subgroup C1      NOp   1
                         Standard orientation:                         
 ---------------------------------------------------------------------
 Center     Atomic      Atomic             Coordinates (Angstroms)
 Number     Number       Type             X           Y           Z
 ---------------------------------------------------------------------
      1          6           0       -1.933553    0.128084    0.000127
      2          1           0       -2.693619   -0.625040   -0.001828
      3          1           0       -2.034603    0.739064   -0.872450
      4          1           0       -2.035847    0.735783    0.874849
      5          6           0       -0.546964   -0.541969   -0.000143
      6          1           0       -0.445408   -1.151194   -0.873889
      7          1           0       -0.445178   -1.151425    0.873414
      8          6           0        0.546964    0.541969   -0.000143
      9          1           0        0.445178    1.151426    0.873414
     10          1           0        0.445408    1.151194   -0.873889
     11          6           0        1.933553   -0.128084    0.000127
     12          1           0        2.035307   -0.737606   -0.873388
     13          1           0        2.693620    0.625042    0.000044
     14          1           0        2.035141   -0.737244    0.873914
 ---------------------------------------------------------------------
 Rotational constants (GHZ):          23.0583297           3.7383896           3.4902860
 Standard basis: CC-pVDZ (5D, 7F)
 There are   110 symmetry adapted cartesian basis functions of A   symmetry.
 There are   106 symmetry adapted basis functions of A   symmetry.
   106 basis functions,   202 primitive gaussians,   110 cartesian basis functions
    17 alpha electrons       17 beta electrons
       nuclear repulsion energy       131.8273036754 Hartrees.
 NAtoms=   14 NActive=   14 NUniq=   14 SFac= 1.00D+00 NAtFMM=   60 NAOKFM=F Big=F
 Integral buffers will be    131072 words long.
 Raffenetti 2 integral format.
 Two-electron integral symmetry is turned on.
 One-electron integrals computed using PRISM.
 NBasis=   106 RedAO= T EigKep=  3.74D-03  NBF=   106
 NBsUse=   106 1.00D-06 EigRej= -1.00D+00 NBFU=   106
 ExpMin= 1.22D-01 ExpMax= 6.67D+03 ExpMxC= 2.28D+02 IAcc=3 IRadAn=         5 AccDes= 0.00D+00
 Harris functional with IExCor=  402 and IRadAn=       5 diagonalized for initial guess.
 HarFok:  IExCor=  402 AccDes= 0.00D+00 IRadAn=         5 IDoV= 1 UseB2=F ITyADJ=14
 ICtDFT=  3500011 ScaDFX=  1.000000  1.000000  1.000000  1.000000
 FoFCou: FMM=F IPFlag=           0 FMFlag=      100000 FMFlg1=           0
         NFxFlg=           0 DoJE=T BraDBF=F KetDBF=T FulRan=T
         wScrn=  0.000000 ICntrl=       500 IOpCl=  0 I1Cent=   200000004 NGrid=           0
         NMat0=    1 NMatS0=      1 NMatT0=    0 NMatD0=    1 NMtDS0=    0 NMtDT0=    0
 Petite list used in FoFCou.
 Requested convergence on RMS density matrix=1.00D-08 within 128 cycles.
 Requested convergence on MAX density matrix=1.00D-06.
 Requested convergence on             energy=1.00D-06.
 No special actions if energy rises.
 Integral accuracy reduced to 1.0D-05 until final iterations.
 Initial convergence to 1.0D-05 achieved.  Increase integral accuracy.
 SCF Done:  E(RB3LYP) =  -158.449287645     A.U. after   11 cycles
            NFock= 11  Conv=0.23D-08     -V/T= 2.0065

 **********************************************************************

            Population analysis using the SCF density.

 **********************************************************************

 Orbital symmetries:
       Occupied  (A) (A) (A) (A) (A) (A) (A) (A) (A) (A) (A) (A)
                 (A) (A) (A) (A) (A)
       Virtual   (A) (A) (A) (A) (A) (A) (A) (A) (A) (A) (A) (A)
                 (A) (A) (A) (A) (A) (A) (A) (A) (A) (A) (A) (A)
                 (A) (A) (A) (A) (A) (A) (A) (A) (A) (A) (A) (A)
                 (A) (A) (A) (A) (A) (A) (A) (A) (A) (A) (A) (A)
                 (A) (A) (A) (A) (A) (A) (A) (A) (A) (A) (A) (A)
                 (A) (A) (A) (A) (A) (A) (A) (A) (A) (A) (A) (A)
                 (A) (A) (A) (A) (A) (A) (A) (A) (A) (A) (A) (A)
                 (A) (A) (A) (A) (A)
 The electronic state is 1-A.
 Alpha  occ. eigenvalues --  -10.17039 -10.17022 -10.16376 -10.16375  -0.79438
 Alpha  occ. eigenvalues --   -0.72382  -0.62951  -0.58007  -0.47409  -0.42674
 Alpha  occ. eigenvalues --   -0.41459  -0.41282  -0.36726  -0.35464  -0.33226
 Alpha  occ. eigenvalues --   -0.33057  -0.31004
 Alpha virt. eigenvalues --    0.06371   0.08599   0.10166   0.10794   0.14203
 Alpha virt. eigenvalues --    0.15212   0.15505   0.16407   0.17399   0.18084
 Alpha virt. eigenvalues --    0.22633   0.22902   0.24113   0.40587   0.41281
 Alpha virt. eigenvalues --    0.41445   0.43423   0.45132   0.50056   0.50791
 Alpha virt. eigenvalues --    0.58771   0.61104   0.65359   0.66400   0.66551
 Alpha virt. eigenvalues --    0.67331   0.68295   0.68334   0.68780   0.69687
 Alpha virt. eigenvalues --    0.70985   0.72663   0.73211   0.75202   0.75977
 Alpha virt. eigenvalues --    0.89118   0.91102   0.96890   1.09165   1.21728
 Alpha virt. eigenvalues --    1.22824   1.23439   1.23780   1.32042   1.33492
 Alpha virt. eigenvalues --    1.43749   1.43826   1.46921   1.49418   1.57076
 Alpha virt. eigenvalues --    1.62702   1.62910   1.63329   1.64028   1.66119
 Alpha virt. eigenvalues --    1.67198   1.68862   1.72257   1.72284   1.72604
 Alpha virt. eigenvalues --    1.73324   1.74099   1.77228   1.77515   1.77531
 Alpha virt. eigenvalues --    1.88163   1.96325   1.97424   1.98122   1.98473
 Alpha virt. eigenvalues --    2.10495   2.10848   2.19345   2.24763   2.24982
 Alpha virt. eigenvalues --    2.28029   2.35245   2.35730   2.37276   2.46908
 Alpha virt. eigenvalues --    2.49619   2.51060   2.51150   2.55685   2.57514
 Alpha virt. eigenvalues --    2.62988   2.66257   2.75255   2.75260
          Condensed to atoms (all electrons):
               1          2          3          4          5          6
     1  C    4.469627   0.374894   0.392399   0.392380   0.439631  -0.023636
     2  H    0.374894   0.700898  -0.030610  -0.030621  -0.010699  -0.004862
     3  H    0.392399  -0.030610   0.684312  -0.031522  -0.023070  -0.009434
     4  H    0.392380  -0.030621  -0.031522   0.684315  -0.023016   0.009519
     5  C    0.439631  -0.010699  -0.023070  -0.023016   4.544232   0.375864
     6  H   -0.023636  -0.004862  -0.009434   0.009519   0.375864   0.728667
     7  H   -0.023631  -0.004789   0.009519  -0.009506   0.375875  -0.045900
     8  C   -0.042611   0.005616  -0.004993  -0.004961   0.454700  -0.026465
     9  H   -0.004177   0.000085  -0.002160   0.007302  -0.026505   0.010704
    10  H   -0.004213   0.000086   0.007319  -0.002154  -0.026450  -0.012580
    11  C    0.005546  -0.000485   0.000439   0.000435  -0.042611  -0.004191
    12  H    0.000437   0.000001  -0.000046   0.000061  -0.004976   0.007309
    13  H   -0.000485   0.000020   0.000001   0.000001   0.005616   0.000085
    14  H    0.000437   0.000001   0.000061  -0.000047  -0.004978  -0.002156
               7          8          9         10         11         12
     1  C   -0.023631  -0.042611  -0.004177  -0.004213   0.005546   0.000437
     2  H   -0.004789   0.005616   0.000085   0.000086  -0.000485   0.000001
     3  H    0.009519  -0.004993  -0.002160   0.007319   0.000439  -0.000046
     4  H   -0.009506  -0.004961   0.007302  -0.002154   0.000435   0.000061
     5  C    0.375875   0.454700  -0.026505  -0.026450  -0.042611  -0.004976
     6  H   -0.045900  -0.026465   0.010704  -0.012580  -0.004191   0.007309
     7  H    0.728680  -0.026490  -0.012570   0.010702  -0.004199  -0.002158
     8  C   -0.026490   4.544232   0.375874   0.375865   0.439631  -0.023043
     9  H   -0.012570   0.375874   0.728694  -0.045900  -0.023633   0.009520
    10  H    0.010702   0.375865  -0.045900   0.728652  -0.023633  -0.009468
    11  C   -0.004199   0.439631  -0.023633  -0.023633   4.469627   0.392387
    12  H   -0.002158  -0.023043   0.009520  -0.009468   0.392387   0.684316
    13  H    0.000086  -0.010699  -0.004825  -0.004826   0.374894  -0.030616
    14  H    0.007312  -0.023043  -0.009471   0.009518   0.392392  -0.031522
              13         14
     1  C   -0.000485   0.000437
     2  H    0.000020   0.000001
     3  H    0.000001   0.000061
     4  H    0.000001  -0.000047
     5  C    0.005616  -0.004978
     6  H    0.000085  -0.002156
     7  H    0.000086   0.007312
     8  C   -0.010699  -0.023043
     9  H   -0.004825  -0.009471
    10  H   -0.004826   0.009518
    11  C    0.374894   0.392392
    12  H   -0.030616  -0.031522
    13  H    0.700898  -0.030616
    14  H   -0.030616   0.684312
 Mulliken charges:
               1
     1  C    0.023402
     2  H    0.000466
     3  H    0.007785
     4  H    0.007814
     5  C   -0.033611
     6  H   -0.002924
     7  H   -0.002932
     8  C   -0.033611
     9  H   -0.002938
    10  H   -0.002918
    11  C    0.023402
    12  H    0.007798
    13  H    0.000466
    14  H    0.007800
 Sum of Mulliken charges =   0.00000
 Mulliken charges with hydrogens summed into heavy atoms:
               1
     1  C    0.039467
     5  C   -0.039467
     8  C   -0.039467
    11  C    0.039467
 Electronic spatial extent (au):  <R**2>=            414.8774
 Charge=              0.0000 electrons
 Dipole moment (field-independent basis, Debye):
    X=              0.0000    Y=              0.0000    Z=              0.0000  Tot=              0.0000
 Quadrupole moment (field-independent basis, Debye-Ang):
   XX=            -29.4856   YY=            -28.3256   ZZ=            -27.5163
   XY=              0.3722   XZ=             -0.0001   YZ=             -0.0001
 Traceless Quadrupole moment (field-independent basis, Debye-Ang):
   XX=             -1.0431   YY=              0.1170   ZZ=              0.9262
   XY=              0.3722   XZ=             -0.0001   YZ=             -0.0001
 Octapole moment (field-independent basis, Debye-Ang**2):
  XXX=              0.0000  YYY=              0.0000  ZZZ=              0.0021  XYY=              0.0000
  XXY=              0.0000  XXZ=             -0.0011  XZZ=              0.0000  YZZ=              0.0000
  YYZ=             -0.0017  XYZ=             -0.0007
 Hexadecapole moment (field-independent basis, Debye-Ang**3):
 XXXX=           -445.2053 YYYY=            -89.5478 ZZZZ=            -55.8746 XXXY=              6.2798
 XXXZ=              0.0021 YYYX=              1.0064 YYYZ=             -0.0018 ZZZX=             -0.0051
 ZZZY=              0.0005 XXYY=            -85.3197 XXZZ=            -81.0086 YYZZ=            -22.5955
 XXYZ=              0.0035 YYXZ=              0.0033 ZZXY=             -1.1148
 N-N= 1.318273036754D+02 E-N=-6.294804053675D+02  KE= 1.574291548198D+02
 Calling FoFJK, ICntrl=      2127 FMM=F ISym2X=0 I1Cent= 0 IOpClX= 0 NMat=1 NMatS=1 NMatT=0.
 ***** Axes restored to original set *****
 -------------------------------------------------------------------
 Center     Atomic                   Forces (Hartrees/Bohr)
 Number     Number              X              Y              Z
 -------------------------------------------------------------------
      1        6           0.013641714    0.008228437    0.027057435
      2        1           0.005157355   -0.022170884   -0.004361542
      3        1           0.005806683    0.008359163   -0.020281918
      4        1          -0.022436378   -0.001613375   -0.002997013
      5        6          -0.025882724    0.015441013   -0.033501876
      6        1           0.023370534   -0.000984741    0.003014085
      7        1          -0.004928324   -0.010933399    0.020307784
      8        6           0.025872156   -0.015444758    0.033508389
      9        1          -0.023370237    0.000992095   -0.003023690
     10        1           0.004939740    0.010930219   -0.020305299
     11        6          -0.013633080   -0.008225447   -0.027062814
     12        1           0.022435303    0.001584075    0.003020032
     13        1          -0.005133118    0.022179411    0.004346731
     14        1          -0.005839623   -0.008341809    0.020279694
 -------------------------------------------------------------------
 Cartesian Forces:  Max     0.033508389 RMS     0.016469590

 GradGradGradGradGradGradGradGradGradGradGradGradGradGradGradGradGradGrad
 Berny optimization.
 FormGI is forming the generalized inverse of G from B-inverse, IUseBI=4.
 Internal  Forces:  Max     0.023375531 RMS     0.009554444
 Search for a local minimum.
 Step number   1 out of a maximum of   74
 All quantities printed in internal units (Hartrees-Bohrs-Radians)
 Mixed Optimization -- RFO/linear search
 Second derivative matrix not updated -- first step.
 ITU=  0
     Eigenvalues ---    0.00237   0.00237   0.00237   0.03840   0.03840
     Eigenvalues ---    0.04896   0.04896   0.05720   0.05720   0.05720
     Eigenvalues ---    0.05720   0.07655   0.07655   0.11701   0.11701
     Eigenvalues ---    0.16000   0.16000   0.16000   0.16000   0.16000
     Eigenvalues ---    0.16000   0.21948   0.21948   0.28519   0.28519
     Eigenvalues ---    0.28519   0.37230   0.37230   0.37230   0.37230
     Eigenvalues ---    0.37230   0.37230   0.37230   0.37230   0.37230
     Eigenvalues ---    0.37230
 RFO step:  Lambda=-1.70133120D-02 EMin= 2.36824151D-03
 Linear search not attempted -- first point.
 Iteration  1 RMS(Cart)=  0.04744564 RMS(Int)=  0.00059288
 Iteration  2 RMS(Cart)=  0.00057077 RMS(Int)=  0.00020101
 Iteration  3 RMS(Cart)=  0.00000026 RMS(Int)=  0.00020101
 Variable       Old X    -DE/DX   Delta X   Delta X   Delta X     New X
                                 (Linear)    (Quad)   (Total)
    R1        2.02201   0.02262   0.00000   0.05811   0.05811   2.08011
    R2        2.02201   0.02244   0.00000   0.05763   0.05763   2.07964
    R3        2.02201   0.02244   0.00000   0.05763   0.05763   2.07964
    R4        2.91018   0.00315   0.00000   0.01041   0.01041   2.92059
    R5        2.02201   0.02337   0.00000   0.06004   0.06004   2.08205
    R6        2.02201   0.02337   0.00000   0.06004   0.06004   2.08205
    R7        2.91018   0.00171   0.00000   0.00564   0.00564   2.91582
    R8        2.02201   0.02338   0.00000   0.06004   0.06004   2.08205
    R9        2.02201   0.02337   0.00000   0.06004   0.06004   2.08204
   R10        2.91018   0.00315   0.00000   0.01041   0.01041   2.92059
   R11        2.02201   0.02244   0.00000   0.05763   0.05763   2.07964
   R12        2.02201   0.02262   0.00000   0.05811   0.05811   2.08011
   R13        2.02201   0.02244   0.00000   0.05763   0.05763   2.07964
    A1        1.91063  -0.00425   0.00000  -0.02263  -0.02298   1.88765
    A2        1.91063  -0.00426   0.00000  -0.02263  -0.02299   1.88765
    A3        1.91063   0.00594   0.00000   0.03496   0.03459   1.94522
    A4        1.91063  -0.00346   0.00000  -0.02238  -0.02245   1.88818
    A5        1.91063   0.00301   0.00000   0.01633   0.01611   1.92674
    A6        1.91063   0.00302   0.00000   0.01636   0.01613   1.92677
    A7        1.91063  -0.00250   0.00000  -0.00312  -0.00329   1.90734
    A8        1.91063  -0.00250   0.00000  -0.00315  -0.00332   1.90731
    A9        1.91063   0.01135   0.00000   0.05713   0.05680   1.96743
   A10        1.91063   0.00014   0.00000  -0.02886  -0.02914   1.88149
   A11        1.91063  -0.00324   0.00000  -0.01098  -0.01145   1.89919
   A12        1.91063  -0.00324   0.00000  -0.01102  -0.01148   1.89915
   A13        1.91063  -0.00324   0.00000  -0.01099  -0.01145   1.89918
   A14        1.91063  -0.00324   0.00000  -0.01101  -0.01148   1.89916
   A15        1.91063   0.01135   0.00000   0.05713   0.05680   1.96743
   A16        1.91063   0.00014   0.00000  -0.02886  -0.02914   1.88149
   A17        1.91063  -0.00250   0.00000  -0.00314  -0.00331   1.90733
   A18        1.91063  -0.00250   0.00000  -0.00314  -0.00330   1.90733
   A19        1.91063   0.00302   0.00000   0.01634   0.01612   1.92675
   A20        1.91063   0.00594   0.00000   0.03496   0.03459   1.94522
   A21        1.91063   0.00302   0.00000   0.01635   0.01612   1.92676
   A22        1.91063  -0.00425   0.00000  -0.02263  -0.02298   1.88765
   A23        1.91063  -0.00346   0.00000  -0.02238  -0.02245   1.88818
   A24        1.91063  -0.00425   0.00000  -0.02263  -0.02298   1.88765
    D1        1.04526  -0.00144   0.00000  -0.01935  -0.01944   1.02582
    D2       -1.04914   0.00145   0.00000   0.01984   0.01993  -1.02920
    D3        3.13965   0.00001   0.00000   0.00028   0.00028   3.13994
    D4       -1.04914  -0.00172   0.00000  -0.02304  -0.02320  -1.07234
    D5        3.13965   0.00118   0.00000   0.01615   0.01617  -3.12736
    D6        1.04526  -0.00027   0.00000  -0.00341  -0.00348   1.04178
    D7        3.13965  -0.00117   0.00000  -0.01565  -0.01566   3.12399
    D8        1.04526   0.00173   0.00000   0.02354   0.02371   1.06897
    D9       -1.04914   0.00028   0.00000   0.00398   0.00406  -1.04508
   D10        1.04682  -0.00190   0.00000  -0.02442  -0.02434   1.02249
   D11       -1.04757   0.00190   0.00000   0.02440   0.02432  -1.02325
   D12        3.14122   0.00000   0.00000   0.00000   0.00000   3.14122
   D13        3.14122   0.00000   0.00000   0.00002   0.00002   3.14124
   D14        1.04682   0.00380   0.00000   0.04884   0.04868   1.09550
   D15       -1.04757   0.00190   0.00000   0.02444   0.02436  -1.02321
   D16       -1.04757  -0.00380   0.00000  -0.04880  -0.04863  -1.09620
   D17        3.14122   0.00000   0.00000   0.00002   0.00002   3.14124
   D18        1.04682  -0.00190   0.00000  -0.02438  -0.02430   1.02253
   D19        1.04711  -0.00027   0.00000  -0.00371  -0.00378   1.04333
   D20        3.14151   0.00000   0.00000  -0.00001  -0.00001   3.14150
   D21       -1.04728   0.00027   0.00000   0.00369   0.00376  -1.04352
   D22        3.14151   0.00117   0.00000   0.01590   0.01592  -3.12575
   D23       -1.04728   0.00145   0.00000   0.01960   0.01969  -1.02759
   D24        1.04711   0.00172   0.00000   0.02330   0.02346   1.07058
   D25       -1.04728  -0.00172   0.00000  -0.02328  -0.02345  -1.07073
   D26        1.04711  -0.00145   0.00000  -0.01959  -0.01968   1.02743
   D27        3.14151  -0.00117   0.00000  -0.01589  -0.01591   3.12560
         Item               Value     Threshold  Converged?
 Maximum Force            0.023376     0.000450     NO 
 RMS     Force            0.009554     0.000300     NO 
 Maximum Displacement     0.123511     0.001800     NO 
 RMS     Displacement     0.047051     0.001200     NO 
 Predicted change in Energy=-9.036676D-03
 GradGradGradGradGradGradGradGradGradGradGradGradGradGradGradGradGradGrad

                          Input orientation:                          
 ---------------------------------------------------------------------
 Center     Atomic      Atomic             Coordinates (Angstroms)
 Number     Number       Type             X           Y           Z
 ---------------------------------------------------------------------
      1          6           0       -4.051224   -0.491341   -0.020035
      2          1           0       -3.692189   -1.531796   -0.033941
      3          1           0       -3.695586    0.006370   -0.934857
      4          1           0       -5.151345   -0.507892   -0.043555
      5          6           0       -3.550558    0.262688    1.232711
      6          1           0       -2.448930    0.252576    1.247392
      7          1           0       -3.904267   -0.258560    2.136640
      8          6           0       -4.035469    1.726712    1.280692
      9          1           0       -5.137093    1.736832    1.265645
     10          1           0       -3.681457    2.248062    0.376941
     11          6           0       -3.535239    2.480588    2.533704
     12          1           0       -2.435124    2.495573    2.558528
     13          1           0       -3.892800    3.521563    2.546709
     14          1           0       -3.892679    1.983808    3.448329
 ---------------------------------------------------------------------
                    Distance matrix (angstroms):
                    1          2          3          4          5
     1  C    0.000000
     2  H    1.100749   0.000000
     3  H    1.100497   1.782587   0.000000
     4  H    1.100497   1.782585   1.782728   0.000000
     5  C    1.545509   2.201054   2.187483   2.187503   0.000000
     6  H    2.174197   2.524182   2.525269   3.089969   1.101772
     7  H    2.174173   2.525377   3.089956   2.524009   1.101771
     8  C    2.571361   3.530436   2.825555   2.827060   1.542987
     9  H    2.792282   3.802710   3.148754   2.598653   2.165935
    10  H    2.792605   3.802140   2.597345   3.151614   2.165914
    11  C    3.952238   4.766200   4.263612   4.264397   2.571361
    12  H    4.264085   4.951849   4.470865   4.813471   2.826262
    13  H    4.766200   5.677714   4.951442   4.952768   3.530437
    14  H    4.263924   4.952360   4.812632   4.470578   2.826352
                    6          7          8          9         10
     6  H    0.000000
     7  H    1.780458   0.000000
     8  C    2.165939   2.165911   0.000000
     9  H    3.070760   2.502015   1.101773   0.000000
    10  H    2.501754   3.070723   1.101770   1.780458   0.000000
    11  C    2.792616   2.792271   1.545509   2.174186   2.174184
    12  H    2.598134   3.149861   2.187490   3.089963   2.524664
    13  H    3.802533   3.802318   2.201054   2.524808   2.524750
    14  H    3.150508   2.597860   2.187495   2.524613   3.089963
                   11         12         13         14
    11  C    0.000000
    12  H    1.100497   0.000000
    13  H    1.100749   1.782587   0.000000
    14  H    1.100497   1.782728   1.782585   0.000000
 Stoichiometry    C4H10
 Framework group  C1[X(C4H10)]
 Deg. of freedom    36
 Full point group                 C1      NOp   1
 Largest Abelian subgroup         C1      NOp   1
 Largest concise Abelian subgroup C1      NOp   1
                         Standard orientation:                         
 ---------------------------------------------------------------------
 Center     Atomic      Atomic             Coordinates (Angstroms)
 Number     Number       Type             X           Y           Z
 ---------------------------------------------------------------------
      1          6           0       -1.972318    0.122499    0.000123
      2          1           0       -2.765641   -0.640576   -0.001578
      3          1           0       -2.103740    0.755742   -0.890284
      4          1           0       -2.104770    0.752832    0.892441
      5          6           0       -0.567764   -0.522346   -0.000142
      6          1           0       -0.461545   -1.162637   -0.890449
      7          1           0       -0.461326   -1.162816    0.890009
      8          6           0        0.567765    0.522346   -0.000143
      9          1           0        0.461329    1.162864    0.889976
     10          1           0        0.461543    1.162589   -0.890481
     11          6           0        1.972318   -0.122499    0.000126
     12          1           0        2.104329   -0.754487   -0.891086
     13          1           0        2.765641    0.640578    0.000023
     14          1           0        2.104179   -0.754089    0.891641
 ---------------------------------------------------------------------
 Rotational constants (GHZ):          23.1046865           3.5684394           3.3534889
 Standard basis: CC-pVDZ (5D, 7F)
 There are   110 symmetry adapted cartesian basis functions of A   symmetry.
 There are   106 symmetry adapted basis functions of A   symmetry.
   106 basis functions,   202 primitive gaussians,   110 cartesian basis functions
    17 alpha electrons       17 beta electrons
       nuclear repulsion energy       129.5457449510 Hartrees.
 NAtoms=   14 NActive=   14 NUniq=   14 SFac= 1.00D+00 NAtFMM=   60 NAOKFM=F Big=F
 Integral buffers will be    131072 words long.
 Raffenetti 2 integral format.
 Two-electron integral symmetry is turned on.
 One-electron integrals computed using PRISM.
 NBasis=   106 RedAO= T EigKep=  3.99D-03  NBF=   106
 NBsUse=   106 1.00D-06 EigRej= -1.00D+00 NBFU=   106
 Initial guess from the checkpoint file:  "C4H10_opt.chk"
 B after Tr=     0.000000    0.000000    0.000000
         Rot=    1.000000    0.000027   -0.000002    0.000365 Ang=   0.04 deg.
 ExpMin= 1.22D-01 ExpMax= 6.67D+03 ExpMxC= 2.28D+02 IAcc=2 IRadAn=         4 AccDes= 0.00D+00
 Harris functional with IExCor=  402 and IRadAn=       4 diagonalized for initial guess.
 HarFok:  IExCor=  402 AccDes= 0.00D+00 IRadAn=         4 IDoV= 1 UseB2=F ITyADJ=14
 ICtDFT=  3500011 ScaDFX=  1.000000  1.000000  1.000000  1.000000
 FoFCou: FMM=F IPFlag=           0 FMFlag=      100000 FMFlg1=           0
         NFxFlg=           0 DoJE=T BraDBF=F KetDBF=T FulRan=T
         wScrn=  0.000000 ICntrl=       500 IOpCl=  0 I1Cent=   200000004 NGrid=           0
         NMat0=    1 NMatS0=      1 NMatT0=    0 NMatD0=    1 NMtDS0=    0 NMtDT0=    0
 Petite list used in FoFCou.
 Requested convergence on RMS density matrix=1.00D-08 within 128 cycles.
 Requested convergence on MAX density matrix=1.00D-06.
 Requested convergence on             energy=1.00D-06.
 No special actions if energy rises.
 Integral accuracy reduced to 1.0D-05 until final iterations.
 Initial convergence to 1.0D-05 achieved.  Increase integral accuracy.
 SCF Done:  E(RB3LYP) =  -158.458240494     A.U. after    9 cycles
            NFock=  9  Conv=0.63D-08     -V/T= 2.0095
 Calling FoFJK, ICntrl=      2127 FMM=F ISym2X=0 I1Cent= 0 IOpClX= 0 NMat=1 NMatS=1 NMatT=0.
 ***** Axes restored to original set *****
 -------------------------------------------------------------------
 Center     Atomic                   Forces (Hartrees/Bohr)
 Number     Number              X              Y              Z
 -------------------------------------------------------------------
      1        6           0.003618785    0.004674172    0.008611963
      2        1           0.000018989   -0.000618695   -0.000314551
      3        1          -0.000290391   -0.000120489   -0.002113773
      4        1          -0.001570047   -0.000561909   -0.001335165
      5        6          -0.006611210    0.003402860   -0.008862402
      6        1           0.002003081   -0.001268401    0.001846450
      7        1           0.001438378   -0.001478766    0.002197476
      8        6           0.006604510   -0.003405230    0.008866464
      9        1          -0.002002862    0.001274201   -0.001848817
     10        1          -0.001433654    0.001474713   -0.002198127
     11        6          -0.003616607   -0.004673428   -0.008613288
     12        1           0.001570424    0.000566159    0.001333688
     13        1          -0.000023121    0.000617235    0.000317088
     14        1           0.000293726    0.000117578    0.002112994
 -------------------------------------------------------------------
 Cartesian Forces:  Max     0.008866464 RMS     0.003590109

 GradGradGradGradGradGradGradGradGradGradGradGradGradGradGradGradGradGrad
 Berny optimization.
 Using GEDIIS/GDIIS optimizer.
 FormGI is forming the generalized inverse of G from B-inverse, IUseBI=4.
 Internal  Forces:  Max     0.006151703 RMS     0.001538467
 Search for a local minimum.
 Step number   2 out of a maximum of   74
 All quantities printed in internal units (Hartrees-Bohrs-Radians)
 Mixed Optimization -- RFO/linear search
 Update second derivatives using D2CorX and points    1    2
 DE= -8.95D-03 DEPred=-9.04D-03 R= 9.91D-01
 TightC=F SS=  1.41D+00  RLast= 2.49D-01 DXNew= 5.0454D-01 7.4640D-01
 Trust test= 9.91D-01 RLast= 2.49D-01 DXMaxT set to 5.05D-01
 ITU=  1  0
 Use linear search instead of GDIIS.
     Eigenvalues ---    0.00237   0.00237   0.00237   0.03472   0.03472
     Eigenvalues ---    0.04694   0.04775   0.05423   0.05423   0.05542
     Eigenvalues ---    0.05549   0.08237   0.08246   0.12147   0.12147
     Eigenvalues ---    0.15521   0.16000   0.16000   0.16000   0.16000
     Eigenvalues ---    0.16121   0.21959   0.22282   0.27797   0.28519
     Eigenvalues ---    0.28520   0.36931   0.37230   0.37230   0.37230
     Eigenvalues ---    0.37230   0.37230   0.37230   0.37230   0.37230
     Eigenvalues ---    0.38770
 RFO step:  Lambda=-7.54913489D-04 EMin= 2.36824151D-03
 Quartic linear search produced a step of  0.09276.
 Iteration  1 RMS(Cart)=  0.00752789 RMS(Int)=  0.00008785
 Iteration  2 RMS(Cart)=  0.00008710 RMS(Int)=  0.00004325
 Iteration  3 RMS(Cart)=  0.00000001 RMS(Int)=  0.00004325
 Variable       Old X    -DE/DX   Delta X   Delta X   Delta X     New X
                                 (Linear)    (Quad)   (Total)
    R1        2.08011   0.00060   0.00539  -0.00145   0.00394   2.08405
    R2        2.07964   0.00161   0.00535   0.00154   0.00689   2.08653
    R3        2.07964   0.00161   0.00535   0.00154   0.00688   2.08652
    R4        2.92059  -0.00615   0.00097  -0.02407  -0.02310   2.89749
    R5        2.08205   0.00204   0.00557   0.00267   0.00824   2.09029
    R6        2.08205   0.00204   0.00557   0.00268   0.00825   2.09029
    R7        2.91582  -0.00426   0.00052  -0.01658  -0.01606   2.89976
    R8        2.08205   0.00204   0.00557   0.00267   0.00824   2.09029
    R9        2.08204   0.00204   0.00557   0.00267   0.00824   2.09029
   R10        2.92059  -0.00615   0.00097  -0.02407  -0.02310   2.89749
   R11        2.07964   0.00161   0.00535   0.00154   0.00689   2.08652
   R12        2.08011   0.00060   0.00539  -0.00145   0.00394   2.08405
   R13        2.07964   0.00161   0.00535   0.00154   0.00689   2.08652
    A1        1.88765  -0.00085  -0.00213  -0.00506  -0.00722   1.88043
    A2        1.88765  -0.00085  -0.00213  -0.00505  -0.00721   1.88044
    A3        1.94522  -0.00014   0.00321  -0.00334  -0.00017   1.94506
    A4        1.88818  -0.00157  -0.00208  -0.00844  -0.01061   1.87757
    A5        1.92674   0.00164   0.00149   0.01055   0.01198   1.93872
    A6        1.92677   0.00164   0.00150   0.01054   0.01197   1.93874
    A7        1.90734   0.00025  -0.00031   0.00373   0.00335   1.91070
    A8        1.90731   0.00025  -0.00031   0.00373   0.00335   1.91067
    A9        1.96743  -0.00022   0.00527   0.00165   0.00681   1.97424
   A10        1.88149  -0.00123  -0.00270  -0.02401  -0.02672   1.85477
   A11        1.89919   0.00045  -0.00106   0.00679   0.00564   1.90483
   A12        1.89915   0.00045  -0.00107   0.00680   0.00565   1.90480
   A13        1.89918   0.00045  -0.00106   0.00679   0.00564   1.90483
   A14        1.89916   0.00045  -0.00106   0.00680   0.00565   1.90481
   A15        1.96743  -0.00022   0.00527   0.00165   0.00681   1.97424
   A16        1.88149  -0.00123  -0.00270  -0.02401  -0.02672   1.85477
   A17        1.90733   0.00025  -0.00031   0.00373   0.00335   1.91068
   A18        1.90733   0.00025  -0.00031   0.00373   0.00335   1.91068
   A19        1.92675   0.00164   0.00150   0.01055   0.01198   1.93873
   A20        1.94522  -0.00014   0.00321  -0.00334  -0.00017   1.94506
   A21        1.92676   0.00164   0.00150   0.01054   0.01197   1.93873
   A22        1.88765  -0.00085  -0.00213  -0.00505  -0.00722   1.88043
   A23        1.88818  -0.00157  -0.00208  -0.00844  -0.01061   1.87757
   A24        1.88765  -0.00085  -0.00213  -0.00505  -0.00722   1.88043
    D1        1.02582  -0.00059  -0.00180  -0.01088  -0.01270   1.01312
    D2       -1.02920   0.00060   0.00185   0.01378   0.01565  -1.01355
    D3        3.13994   0.00000   0.00003   0.00144   0.00146   3.14140
    D4       -1.07234  -0.00053  -0.00215  -0.00939  -0.01154  -1.08388
    D5       -3.12736   0.00067   0.00150   0.01528   0.01681  -3.11055
    D6        1.04178   0.00007  -0.00032   0.00293   0.00262   1.04440
    D7        3.12399  -0.00066  -0.00145  -0.01237  -0.01385   3.11014
    D8        1.06897   0.00054   0.00220   0.01230   0.01450   1.08347
    D9       -1.04508  -0.00006   0.00038  -0.00005   0.00032  -1.04476
   D10        1.02249  -0.00049  -0.00226  -0.01037  -0.01264   1.00985
   D11       -1.02325   0.00049   0.00226   0.01073   0.01300  -1.01026
   D12        3.14122   0.00000   0.00000   0.00018   0.00018   3.14140
   D13        3.14124   0.00000   0.00000   0.00017   0.00017   3.14142
   D14        1.09550   0.00097   0.00452   0.02128   0.02581   1.12131
   D15       -1.02321   0.00049   0.00226   0.01072   0.01299  -1.01022
   D16       -1.09620  -0.00097  -0.00451  -0.02093  -0.02547  -1.12167
   D17        3.14124   0.00000   0.00000   0.00017   0.00017   3.14142
   D18        1.02253  -0.00049  -0.00225  -0.01038  -0.01265   1.00988
   D19        1.04333   0.00007  -0.00035   0.00151   0.00117   1.04451
   D20        3.14150   0.00000   0.00000   0.00002   0.00002   3.14152
   D21       -1.04352  -0.00007   0.00035  -0.00147  -0.00113  -1.04466
   D22       -3.12575   0.00066   0.00148   0.01384   0.01535  -3.11041
   D23       -1.02759   0.00060   0.00183   0.01235   0.01419  -1.01340
   D24        1.07058   0.00053   0.00218   0.01086   0.01304   1.08361
   D25       -1.07073  -0.00053  -0.00218  -0.01083  -0.01300  -1.08374
   D26        1.02743  -0.00060  -0.00183  -0.01232  -0.01416   1.01327
   D27        3.12560  -0.00066  -0.00148  -0.01381  -0.01531   3.11029
         Item               Value     Threshold  Converged?
 Maximum Force            0.006152     0.000450     NO 
 RMS     Force            0.001538     0.000300     NO 
 Maximum Displacement     0.018127     0.001800     NO 
 RMS     Displacement     0.007548     0.001200     NO 
 Predicted change in Energy=-4.179325D-04
 GradGradGradGradGradGradGradGradGradGradGradGradGradGradGradGradGradGrad

                          Input orientation:                          
 ---------------------------------------------------------------------
 Center     Atomic      Atomic             Coordinates (Angstroms)
 Number     Number       Type             X           Y           Z
 ---------------------------------------------------------------------
      1          6           0       -4.050177   -0.482908   -0.013671
      2          1           0       -3.690994   -1.525537   -0.026059
      3          1           0       -3.697493    0.005455   -0.939007
      4          1           0       -5.153498   -0.506706   -0.048883
      5          6           0       -3.554056    0.266151    1.228799
      6          1           0       -2.448407    0.245987    1.254561
      7          1           0       -3.894946   -0.262482    2.138675
      8          6           0       -4.032094    1.723206    1.284679
      9          1           0       -5.137740    1.743377    1.258733
     10          1           0       -3.691049    2.251888    0.374892
     11          6           0       -3.536201    2.472186    2.527289
     12          1           0       -2.432883    2.495739    2.562829
     13          1           0       -3.895153    3.514896    2.539536
     14          1           0       -3.889268    1.983930    3.452532
 ---------------------------------------------------------------------
                    Distance matrix (angstroms):
                    1          2          3          4          5
     1  C    0.000000
     2  H    1.102833   0.000000
     3  H    1.104142   1.782541   0.000000
     4  H    1.104139   1.782542   1.781734   0.000000
     5  C    1.533284   2.191705   2.188132   2.188148   0.000000
     6  H    2.169186   2.514420   2.535707   3.095646   1.106133
     7  H    2.169165   2.514553   3.095626   2.535548   1.106134
     8  C    2.559879   3.519761   2.829736   2.829919   1.534488
     9  H    2.785346   3.798627   3.150356   2.602495   2.165906
    10  H    2.785510   3.798645   2.602467   3.150902   2.165889
    11  C    3.931059   4.746086   4.257462   4.257476   2.559879
    12  H    4.257503   4.945286   4.479242   4.820525   2.829793
    13  H    4.746086   5.659499   4.945251   4.945364   3.519761
    14  H    4.257435   4.945328   4.820452   4.479001   2.829862
                    6          7          8          9         10
     6  H    0.000000
     7  H    1.769936   0.000000
     8  C    2.165906   2.165889   0.000000
     9  H    3.078102   2.518394   1.106135   0.000000
    10  H    2.518256   3.078077   1.106132   1.769936   0.000000
    11  C    2.785515   2.785341   1.533283   2.169176   2.169175
    12  H    2.602536   3.150448   2.188138   3.095637   2.535648
    13  H    3.798684   3.798588   2.191705   2.514510   2.514464
    14  H    3.150810   2.602426   2.188141   2.535607   3.095636
                   11         12         13         14
    11  C    0.000000
    12  H    1.104141   0.000000
    13  H    1.102833   1.782542   0.000000
    14  H    1.104140   1.781734   1.782541   0.000000
 Stoichiometry    C4H10
 Framework group  C1[X(C4H10)]
 Deg. of freedom    36
 Full point group                 C1      NOp   1
 Largest Abelian subgroup         C1      NOp   1
 Largest concise Abelian subgroup C1      NOp   1
                         Standard orientation:                         
 ---------------------------------------------------------------------
 Center     Atomic      Atomic             Coordinates (Angstroms)
 Number     Number       Type             X           Y           Z
 ---------------------------------------------------------------------
      1          6           0       -1.961796    0.121099    0.000066
      2          1           0       -2.755311   -0.644783   -0.000135
      3          1           0       -2.107781    0.757047   -0.890658
      4          1           0       -2.107823    0.756630    0.891076
      5          6           0       -0.567364   -0.516489   -0.000073
      6          1           0       -0.461467   -1.171536   -0.885076
      7          1           0       -0.461360   -1.171615    0.884860
      8          6           0        0.567364    0.516489   -0.000074
      9          1           0        0.461360    1.171651    0.884832
     10          1           0        0.461467    1.171499   -0.885104
     11          6           0        1.961796   -0.121099    0.000066
     12          1           0        2.107831   -0.756964   -0.890708
     13          1           0        2.755311    0.644783   -0.000016
     14          1           0        2.107772   -0.756714    0.891026
 ---------------------------------------------------------------------
 Rotational constants (GHZ):          23.1956985           3.5963825           3.3782319
 Standard basis: CC-pVDZ (5D, 7F)
 There are   110 symmetry adapted cartesian basis functions of A   symmetry.
 There are   106 symmetry adapted basis functions of A   symmetry.
   106 basis functions,   202 primitive gaussians,   110 cartesian basis functions
    17 alpha electrons       17 beta electrons
       nuclear repulsion energy       129.8523775933 Hartrees.
 NAtoms=   14 NActive=   14 NUniq=   14 SFac= 1.00D+00 NAtFMM=   60 NAOKFM=F Big=F
 Integral buffers will be    131072 words long.
 Raffenetti 2 integral format.
 Two-electron integral symmetry is turned on.
 One-electron integrals computed using PRISM.
 NBasis=   106 RedAO= T EigKep=  3.87D-03  NBF=   106
 NBsUse=   106 1.00D-06 EigRej= -1.00D+00 NBFU=   106
 Initial guess from the checkpoint file:  "C4H10_opt.chk"
 B after Tr=     0.000000    0.000000    0.000000
         Rot=    1.000000    0.000113   -0.000010   -0.000117 Ang=   0.02 deg.
 Requested convergence on RMS density matrix=1.00D-08 within 128 cycles.
 Requested convergence on MAX density matrix=1.00D-06.
 Requested convergence on             energy=1.00D-06.
 No special actions if energy rises.
 SCF Done:  E(RB3LYP) =  -158.458741600     A.U. after    8 cycles
            NFock=  8  Conv=0.20D-08     -V/T= 2.0095
 Calling FoFJK, ICntrl=      2127 FMM=F ISym2X=0 I1Cent= 0 IOpClX= 0 NMat=1 NMatS=1 NMatT=0.
 ***** Axes restored to original set *****
 -------------------------------------------------------------------
 Center     Atomic                   Forces (Hartrees/Bohr)
 Number     Number              X              Y              Z
 -------------------------------------------------------------------
      1        6           0.000749599    0.000379408    0.001434063
      2        1          -0.000338439    0.000424124   -0.000308002
      3        1          -0.000373178   -0.000419906    0.000188331
      4        1           0.000475153   -0.000118964   -0.000329856
      5        6          -0.001423347    0.000492777   -0.002032010
      6        1          -0.000203902   -0.000165427    0.000435923
      7        1           0.000504207    0.000081373    0.000005070
      8        6           0.001418298   -0.000494563    0.002035041
      9        1           0.000204583    0.000165614   -0.000436206
     10        1          -0.000503673   -0.000081142   -0.000005537
     11        6          -0.000744129   -0.000377482   -0.001437365
     12        1          -0.000475918    0.000120436    0.000330354
     13        1           0.000337532   -0.000424443    0.000308569
     14        1           0.000373215    0.000418195   -0.000188375
 -------------------------------------------------------------------
 Cartesian Forces:  Max     0.002035041 RMS     0.000716105

 GradGradGradGradGradGradGradGradGradGradGradGradGradGradGradGradGradGrad
 Berny optimization.
 Using GEDIIS/GDIIS optimizer.
 FormGI is forming the generalized inverse of G from B-inverse, IUseBI=4.
 Internal  Forces:  Max     0.001093614 RMS     0.000345580
 Search for a local minimum.
 Step number   3 out of a maximum of   74
 All quantities printed in internal units (Hartrees-Bohrs-Radians)
 Mixed Optimization -- En-DIIS/RFO-DIIS
 Update second derivatives using D2CorX and points    1    2    3
 DE= -5.01D-04 DEPred=-4.18D-04 R= 1.20D+00
 TightC=F SS=  1.41D+00  RLast= 9.45D-02 DXNew= 8.4853D-01 2.8361D-01
 Trust test= 1.20D+00 RLast= 9.45D-02 DXMaxT set to 5.05D-01
 ITU=  1  1  0
 Use linear search instead of GDIIS.
     Eigenvalues ---    0.00237   0.00237   0.00237   0.03376   0.03376
     Eigenvalues ---    0.03930   0.04724   0.05374   0.05374   0.05424
     Eigenvalues ---    0.05445   0.08361   0.08387   0.12238   0.12238
     Eigenvalues ---    0.14323   0.16000   0.16000   0.16000   0.16000
     Eigenvalues ---    0.16231   0.21906   0.21927   0.28197   0.28519
     Eigenvalues ---    0.28538   0.37070   0.37230   0.37230   0.37230
     Eigenvalues ---    0.37230   0.37230   0.37230   0.37230   0.37276
     Eigenvalues ---    0.40733
 RFO step:  Lambda=-3.09568762D-05 EMin= 2.36823484D-03
 Quartic linear search produced a step of  0.19194.
 Iteration  1 RMS(Cart)=  0.00252206 RMS(Int)=  0.00001283
 Iteration  2 RMS(Cart)=  0.00001566 RMS(Int)=  0.00000974
 Iteration  3 RMS(Cart)=  0.00000000 RMS(Int)=  0.00000974
 Variable       Old X    -DE/DX   Delta X   Delta X   Delta X     New X
                                 (Linear)    (Quad)   (Total)
    R1        2.08405  -0.00051   0.00076  -0.00171  -0.00095   2.08310
    R2        2.08653  -0.00046   0.00132  -0.00202  -0.00070   2.08582
    R3        2.08652  -0.00046   0.00132  -0.00202  -0.00070   2.08582
    R4        2.89749  -0.00109  -0.00443  -0.00090  -0.00533   2.89215
    R5        2.09029  -0.00019   0.00158  -0.00135   0.00024   2.09052
    R6        2.09029  -0.00019   0.00158  -0.00135   0.00024   2.09053
    R7        2.89976  -0.00081  -0.00308  -0.00083  -0.00391   2.89585
    R8        2.09029  -0.00019   0.00158  -0.00135   0.00023   2.09053
    R9        2.09029  -0.00019   0.00158  -0.00134   0.00024   2.09053
   R10        2.89749  -0.00109  -0.00443  -0.00090  -0.00533   2.89215
   R11        2.08652  -0.00046   0.00132  -0.00202  -0.00070   2.08582
   R12        2.08405  -0.00051   0.00076  -0.00171  -0.00095   2.08310
   R13        2.08652  -0.00046   0.00132  -0.00202  -0.00070   2.08582
    A1        1.88043  -0.00036  -0.00139  -0.00150  -0.00289   1.87754
    A2        1.88044  -0.00036  -0.00138  -0.00150  -0.00289   1.87754
    A3        1.94506   0.00037  -0.00003   0.00340   0.00336   1.94841
    A4        1.87757  -0.00041  -0.00204  -0.00217  -0.00423   1.87335
    A5        1.93872   0.00035   0.00230   0.00075   0.00304   1.94175
    A6        1.93874   0.00035   0.00230   0.00072   0.00300   1.94174
    A7        1.91070  -0.00006   0.00064   0.00040   0.00102   1.91172
    A8        1.91067  -0.00006   0.00064   0.00044   0.00106   1.91173
    A9        1.97424   0.00056   0.00131   0.00419   0.00547   1.97971
   A10        1.85477  -0.00017  -0.00513  -0.00280  -0.00793   1.84685
   A11        1.90483  -0.00016   0.00108  -0.00135  -0.00029   1.90454
   A12        1.90480  -0.00016   0.00109  -0.00132  -0.00025   1.90455
   A13        1.90483  -0.00016   0.00108  -0.00135  -0.00028   1.90454
   A14        1.90481  -0.00016   0.00108  -0.00132  -0.00026   1.90455
   A15        1.97424   0.00056   0.00131   0.00419   0.00547   1.97971
   A16        1.85477  -0.00017  -0.00513  -0.00280  -0.00793   1.84685
   A17        1.91068  -0.00006   0.00064   0.00042   0.00104   1.91173
   A18        1.91068  -0.00006   0.00064   0.00041   0.00104   1.91172
   A19        1.93873   0.00035   0.00230   0.00074   0.00302   1.94175
   A20        1.94506   0.00037  -0.00003   0.00340   0.00336   1.94841
   A21        1.93873   0.00035   0.00230   0.00073   0.00302   1.94175
   A22        1.88043  -0.00036  -0.00139  -0.00150  -0.00289   1.87754
   A23        1.87757  -0.00041  -0.00204  -0.00217  -0.00423   1.87335
   A24        1.88043  -0.00036  -0.00138  -0.00150  -0.00289   1.87754
    D1        1.01312  -0.00014  -0.00244  -0.00162  -0.00406   1.00905
    D2       -1.01355   0.00014   0.00300   0.00128   0.00429  -1.00927
    D3        3.14140   0.00000   0.00028  -0.00020   0.00008   3.14148
    D4       -1.08388  -0.00016  -0.00222  -0.00252  -0.00473  -1.08861
    D5       -3.11055   0.00011   0.00323   0.00039   0.00362  -3.10693
    D6        1.04440  -0.00003   0.00050  -0.00110  -0.00059   1.04381
    D7        3.11014  -0.00011  -0.00266  -0.00075  -0.00342   3.10672
    D8        1.08347   0.00017   0.00278   0.00215   0.00493   1.08840
    D9       -1.04476   0.00003   0.00006   0.00066   0.00072  -1.04404
   D10        1.00985  -0.00019  -0.00243  -0.00221  -0.00464   1.00521
   D11       -1.01026   0.00019   0.00249   0.00261   0.00511  -1.00515
   D12        3.14140   0.00000   0.00003   0.00019   0.00023  -3.14156
   D13        3.14142   0.00000   0.00003   0.00016   0.00020  -3.14157
   D14        1.12131   0.00038   0.00495   0.00498   0.00994   1.13126
   D15       -1.01022   0.00019   0.00249   0.00257   0.00506  -1.00516
   D16       -1.12167  -0.00038  -0.00489  -0.00466  -0.00955  -1.13122
   D17        3.14142   0.00000   0.00003   0.00016   0.00020  -3.14157
   D18        1.00988  -0.00019  -0.00243  -0.00226  -0.00469   1.00520
   D19        1.04451  -0.00003   0.00023  -0.00082  -0.00060   1.04391
   D20        3.14152   0.00000   0.00000   0.00006   0.00006   3.14158
   D21       -1.04466   0.00003  -0.00022   0.00094   0.00072  -1.04394
   D22       -3.11041   0.00011   0.00295   0.00061   0.00357  -3.10684
   D23       -1.01340   0.00014   0.00272   0.00150   0.00422  -1.00917
   D24        1.08361   0.00016   0.00250   0.00238   0.00488   1.08849
   D25       -1.08374  -0.00017  -0.00250  -0.00229  -0.00479  -1.08852
   D26        1.01327  -0.00014  -0.00272  -0.00141  -0.00413   1.00915
   D27        3.11029  -0.00011  -0.00294  -0.00052  -0.00347   3.10681
         Item               Value     Threshold  Converged?
 Maximum Force            0.001094     0.000450     NO 
 RMS     Force            0.000346     0.000300     NO 
 Maximum Displacement     0.006179     0.001800     NO 
 RMS     Displacement     0.002516     0.001200     NO 
 Predicted change in Energy=-2.935525D-05
 GradGradGradGradGradGradGradGradGradGradGradGradGradGradGradGradGradGrad

                          Input orientation:                          
 ---------------------------------------------------------------------
 Center     Atomic      Atomic             Coordinates (Angstroms)
 Number     Number       Type             X           Y           Z
 ---------------------------------------------------------------------
      1          6           0       -4.049710   -0.483006   -0.013106
      2          1           0       -3.691644   -1.525465   -0.027044
      3          1           0       -3.699071    0.002261   -0.940402
      4          1           0       -5.152486   -0.508834   -0.052153
      5          6           0       -3.555867    0.266746    1.226371
      6          1           0       -2.450232    0.244459    1.256056
      7          1           0       -3.892690   -0.262595    2.137502
      8          6           0       -4.030433    1.722558    1.287199
      9          1           0       -5.136069    1.744848    1.257533
     10          1           0       -3.693625    2.251892    0.376059
     11          6           0       -3.536556    2.472322    2.526655
     12          1           0       -2.433778    2.498041    2.565743
     13          1           0       -3.894515    3.514819    2.540528
     14          1           0       -3.887280    1.987136    3.453961
 ---------------------------------------------------------------------
                    Distance matrix (angstroms):
                    1          2          3          4          5
     1  C    0.000000
     2  H    1.102328   0.000000
     3  H    1.103771   1.779951   0.000000
     4  H    1.103769   1.779952   1.778376   0.000000
     5  C    1.530461   2.191234   2.187548   2.187542   0.000000
     6  H    2.167557   2.513976   2.538244   3.095325   1.106258
     7  H    2.167567   2.514064   3.095340   2.538170   1.106260
     8  C    2.560406   3.520180   2.833978   2.834075   1.532417
     9  H    2.785324   3.798875   3.151586   2.606651   2.163976
    10  H    2.785303   3.798805   2.606519   3.151706   2.163981
    11  C    3.930353   4.746339   4.260059   4.260138   2.560406
    12  H    4.260087   4.949078   4.485860   4.825562   2.834022
    13  H    4.746339   5.660216   4.949054   4.949169   3.520180
    14  H    4.260110   4.949145   4.825513   4.485917   2.834031
                    6          7          8          9         10
     6  H    0.000000
     7  H    1.764861   0.000000
     8  C    2.163974   2.163983   0.000000
     9  H    3.076506   2.519953   1.106258   0.000000
    10  H    2.519962   3.076516   1.106259   1.764861   0.000000
    11  C    2.785301   2.785327   1.530461   2.167563   2.167561
    12  H    2.606566   3.151655   2.187546   3.095333   2.538212
    13  H    3.798826   3.798854   2.191234   2.514027   2.514014
    14  H    3.151637   2.606604   2.187545   2.538203   3.095331
                   11         12         13         14
    11  C    0.000000
    12  H    1.103770   0.000000
    13  H    1.102328   1.779951   0.000000
    14  H    1.103770   1.778376   1.779952   0.000000
 Stoichiometry    C4H10
 Framework group  C1[X(C4H10)]
 Deg. of freedom    36
 Full point group                 C1      NOp   1
 Largest Abelian subgroup         C1      NOp   1
 Largest concise Abelian subgroup C1      NOp   1
                         Standard orientation:                         
 ---------------------------------------------------------------------
 Center     Atomic      Atomic             Coordinates (Angstroms)
 Number     Number       Type             X           Y           Z
 ---------------------------------------------------------------------
      1          6           0       -1.961498    0.120188   -0.000009
      2          1           0       -2.755836   -0.644112   -0.000129
      3          1           0       -2.111391    0.756805   -0.889144
      4          1           0       -2.111488    0.756631    0.889232
      5          6           0       -0.568486   -0.513712    0.000011
      6          1           0       -0.461788   -1.172300   -0.882419
      7          1           0       -0.461800   -1.172304    0.882442
      8          6           0        0.568486    0.513712    0.000012
      9          1           0        0.461800    1.172290    0.882452
     10          1           0        0.461787    1.172314   -0.882409
     11          6           0        1.961498   -0.120188   -0.000010
     12          1           0        2.111427   -0.756717   -0.889201
     13          1           0        2.755836    0.644112   -0.000021
     14          1           0        2.111452   -0.756719    0.889175
 ---------------------------------------------------------------------
 Rotational constants (GHZ):          23.3024283           3.5953170           3.3781842
 Standard basis: CC-pVDZ (5D, 7F)
 There are   110 symmetry adapted cartesian basis functions of A   symmetry.
 There are   106 symmetry adapted basis functions of A   symmetry.
   106 basis functions,   202 primitive gaussians,   110 cartesian basis functions
    17 alpha electrons       17 beta electrons
       nuclear repulsion energy       129.9225488073 Hartrees.
 NAtoms=   14 NActive=   14 NUniq=   14 SFac= 1.00D+00 NAtFMM=   60 NAOKFM=F Big=F
 Integral buffers will be    131072 words long.
 Raffenetti 2 integral format.
 Two-electron integral symmetry is turned on.
 One-electron integrals computed using PRISM.
 NBasis=   106 RedAO= T EigKep=  3.85D-03  NBF=   106
 NBsUse=   106 1.00D-06 EigRej= -1.00D+00 NBFU=   106
 Initial guess from the checkpoint file:  "C4H10_opt.chk"
 B after Tr=     0.000000    0.000000    0.000000
         Rot=    1.000000   -0.000005    0.000000   -0.000012 Ang=   0.00 deg.
 Requested convergence on RMS density matrix=1.00D-08 within 128 cycles.
 Requested convergence on MAX density matrix=1.00D-06.
 Requested convergence on             energy=1.00D-06.
 No special actions if energy rises.
 SCF Done:  E(RB3LYP) =  -158.458770504     A.U. after    7 cycles
            NFock=  7  Conv=0.20D-08     -V/T= 2.0094
 Calling FoFJK, ICntrl=      2127 FMM=F ISym2X=0 I1Cent= 0 IOpClX= 0 NMat=1 NMatS=1 NMatT=0.
 ***** Axes restored to original set *****
 -------------------------------------------------------------------
 Center     Atomic                   Forces (Hartrees/Bohr)
 Number     Number              X              Y              Z
 -------------------------------------------------------------------
      1        6          -0.000031477    0.000054382   -0.000018882
      2        1          -0.000034244    0.000163589    0.000039398
      3        1          -0.000042051   -0.000053892    0.000081226
      4        1           0.000104622   -0.000001858   -0.000010381
      5        6           0.000123601   -0.000177381    0.000096651
      6        1          -0.000075347   -0.000001268   -0.000004961
      7        1           0.000022202    0.000033335   -0.000066071
      8        6          -0.000122872    0.000177640   -0.000097083
      9        1           0.000075961    0.000001888    0.000005158
     10        1          -0.000021860   -0.000033616    0.000065298
     11        6           0.000030772   -0.000054633    0.000019302
     12        1          -0.000105303    0.000001825    0.000009613
     13        1           0.000033565   -0.000163826   -0.000038987
     14        1           0.000042430    0.000053814   -0.000080281
 -------------------------------------------------------------------
 Cartesian Forces:  Max     0.000177640 RMS     0.000076802

 GradGradGradGradGradGradGradGradGradGradGradGradGradGradGradGradGradGrad
 Berny optimization.
 Using GEDIIS/GDIIS optimizer.
 FormGI is forming the generalized inverse of G from B-inverse, IUseBI=4.
 Internal  Forces:  Max     0.000166053 RMS     0.000060838
 Search for a local minimum.
 Step number   4 out of a maximum of   74
 All quantities printed in internal units (Hartrees-Bohrs-Radians)
 Mixed Optimization -- En-DIIS/RFO-DIIS
 Swapping is turned off.
 Update second derivatives using D2CorX and points    1    2    3    4
 DE= -2.89D-05 DEPred=-2.94D-05 R= 9.85D-01
 TightC=F SS=  1.41D+00  RLast= 2.99D-02 DXNew= 8.4853D-01 8.9733D-02
 Trust test= 9.85D-01 RLast= 2.99D-02 DXMaxT set to 5.05D-01
 ITU=  1  1  1  0
     Eigenvalues ---    0.00237   0.00237   0.00237   0.03331   0.03331
     Eigenvalues ---    0.04103   0.04705   0.05338   0.05338   0.05395
     Eigenvalues ---    0.05428   0.08430   0.08462   0.12288   0.12288
     Eigenvalues ---    0.14203   0.16000   0.16000   0.16000   0.16000
     Eigenvalues ---    0.16359   0.21895   0.22599   0.28155   0.28519
     Eigenvalues ---    0.28560   0.36727   0.37179   0.37230   0.37230
     Eigenvalues ---    0.37230   0.37230   0.37230   0.37230   0.37230
     Eigenvalues ---    0.37402
 En-DIIS/RFO-DIIS/Sim-DIIS IScMMF=       -3 using points:     4    3
 RFO step:  Lambda=-7.63562416D-07.
 DidBck=F Rises=F RFO-DIIS coefs:    0.97900    0.02100
 Iteration  1 RMS(Cart)=  0.00041215 RMS(Int)=  0.00000010
 Iteration  2 RMS(Cart)=  0.00000007 RMS(Int)=  0.00000009
 Variable       Old X    -DE/DX   Delta X   Delta X   Delta X     New X
                                 (Linear)    (Quad)   (Total)
    R1        2.08310  -0.00017   0.00002  -0.00045  -0.00043   2.08267
    R2        2.08582  -0.00011   0.00001  -0.00030  -0.00028   2.08554
    R3        2.08582  -0.00010   0.00001  -0.00029  -0.00028   2.08554
    R4        2.89215  -0.00015   0.00011  -0.00054  -0.00043   2.89173
    R5        2.09052  -0.00008   0.00000  -0.00019  -0.00020   2.09033
    R6        2.09053  -0.00008   0.00000  -0.00020  -0.00020   2.09032
    R7        2.89585   0.00000   0.00008  -0.00001   0.00007   2.89592
    R8        2.09053  -0.00008   0.00000  -0.00019  -0.00020   2.09033
    R9        2.09053  -0.00008  -0.00001  -0.00020  -0.00020   2.09033
   R10        2.89215  -0.00015   0.00011  -0.00054  -0.00043   2.89173
   R11        2.08582  -0.00011   0.00001  -0.00030  -0.00028   2.08554
   R12        2.08310  -0.00017   0.00002  -0.00045  -0.00043   2.08267
   R13        2.08582  -0.00010   0.00001  -0.00029  -0.00028   2.08554
    A1        1.87754   0.00002   0.00006  -0.00002   0.00004   1.87758
    A2        1.87754   0.00002   0.00006  -0.00002   0.00004   1.87758
    A3        1.94841  -0.00007  -0.00007  -0.00034  -0.00041   1.94800
    A4        1.87335  -0.00002   0.00009  -0.00010  -0.00002   1.87333
    A5        1.94175   0.00003  -0.00006   0.00023   0.00017   1.94192
    A6        1.94174   0.00003  -0.00006   0.00025   0.00018   1.94193
    A7        1.91172   0.00004  -0.00002   0.00015   0.00013   1.91184
    A8        1.91173   0.00004  -0.00002   0.00013   0.00011   1.91184
    A9        1.97971  -0.00013  -0.00011  -0.00045  -0.00057   1.97915
   A10        1.84685  -0.00002   0.00017  -0.00005   0.00011   1.84696
   A11        1.90454   0.00004   0.00001   0.00013   0.00014   1.90468
   A12        1.90455   0.00004   0.00001   0.00012   0.00012   1.90468
   A13        1.90454   0.00004   0.00001   0.00013   0.00014   1.90468
   A14        1.90455   0.00004   0.00001   0.00012   0.00013   1.90468
   A15        1.97971  -0.00013  -0.00011  -0.00045  -0.00057   1.97915
   A16        1.84685  -0.00002   0.00017  -0.00005   0.00011   1.84696
   A17        1.91173   0.00004  -0.00002   0.00014   0.00011   1.91184
   A18        1.91172   0.00004  -0.00002   0.00014   0.00012   1.91184
   A19        1.94175   0.00003  -0.00006   0.00024   0.00018   1.94192
   A20        1.94841  -0.00007  -0.00007  -0.00034  -0.00041   1.94800
   A21        1.94175   0.00003  -0.00006   0.00024   0.00018   1.94192
   A22        1.87754   0.00002   0.00006  -0.00002   0.00004   1.87758
   A23        1.87335  -0.00002   0.00009  -0.00010  -0.00002   1.87333
   A24        1.87754   0.00002   0.00006  -0.00002   0.00004   1.87758
    D1        1.00905   0.00001   0.00009   0.00017   0.00025   1.00931
    D2       -1.00927  -0.00001  -0.00009   0.00007  -0.00002  -1.00928
    D3        3.14148   0.00000   0.00000   0.00013   0.00013  -3.14158
    D4       -1.08861   0.00002   0.00010   0.00026   0.00036  -1.08825
    D5       -3.10693   0.00000  -0.00008   0.00017   0.00009  -3.10684
    D6        1.04381   0.00001   0.00001   0.00023   0.00024   1.04405
    D7        3.10672   0.00000   0.00007   0.00007   0.00015   3.10687
    D8        1.08840  -0.00002  -0.00010  -0.00002  -0.00012   1.08828
    D9       -1.04404  -0.00001  -0.00002   0.00004   0.00003  -1.04402
   D10        1.00521   0.00001   0.00010  -0.00001   0.00009   1.00529
   D11       -1.00515  -0.00001  -0.00011  -0.00009  -0.00019  -1.00534
   D12       -3.14156   0.00000   0.00000  -0.00005  -0.00005   3.14157
   D13       -3.14157   0.00000   0.00000  -0.00003  -0.00004   3.14157
   D14        1.13126  -0.00002  -0.00021  -0.00011  -0.00032   1.13094
   D15       -1.00516  -0.00001  -0.00011  -0.00007  -0.00018  -1.00534
   D16       -1.13122   0.00002   0.00020   0.00004   0.00024  -1.13097
   D17       -3.14157   0.00000   0.00000  -0.00003  -0.00004   3.14157
   D18        1.00520   0.00001   0.00010   0.00001   0.00010   1.00530
   D19        1.04391   0.00001   0.00001   0.00011   0.00012   1.04403
   D20        3.14158   0.00000   0.00000   0.00001   0.00001  -3.14159
   D21       -1.04394  -0.00001  -0.00002  -0.00008  -0.00010  -1.04403
   D22       -3.10684   0.00000  -0.00007   0.00007  -0.00001  -3.10685
   D23       -1.00917  -0.00001  -0.00009  -0.00003  -0.00012  -1.00929
   D24        1.08849  -0.00002  -0.00010  -0.00012  -0.00023   1.08827
   D25       -1.08852   0.00002   0.00010   0.00016   0.00026  -1.08826
   D26        1.00915   0.00001   0.00009   0.00006   0.00015   1.00930
   D27        3.10681   0.00000   0.00007  -0.00003   0.00004   3.10686
         Item               Value     Threshold  Converged?
 Maximum Force            0.000166     0.000450     YES
 RMS     Force            0.000061     0.000300     YES
 Maximum Displacement     0.001314     0.001800     YES
 RMS     Displacement     0.000412     0.001200     YES
 Predicted change in Energy=-3.817846D-07
 Optimization completed.
    -- Stationary point found.
                           ----------------------------
                           !   Optimized Parameters   !
                           ! (Angstroms and Degrees)  !
 --------------------------                            --------------------------
 ! Name  Definition              Value          Derivative Info.                !
 --------------------------------------------------------------------------------
 ! R1    R(1,2)                  1.1023         -DE/DX =   -0.0002              !
 ! R2    R(1,3)                  1.1038         -DE/DX =   -0.0001              !
 ! R3    R(1,4)                  1.1038         -DE/DX =   -0.0001              !
 ! R4    R(1,5)                  1.5305         -DE/DX =   -0.0002              !
 ! R5    R(5,6)                  1.1063         -DE/DX =   -0.0001              !
 ! R6    R(5,7)                  1.1063         -DE/DX =   -0.0001              !
 ! R7    R(5,8)                  1.5324         -DE/DX =    0.0                 !
 ! R8    R(8,9)                  1.1063         -DE/DX =   -0.0001              !
 ! R9    R(8,10)                 1.1063         -DE/DX =   -0.0001              !
 ! R10   R(8,11)                 1.5305         -DE/DX =   -0.0002              !
 ! R11   R(11,12)                1.1038         -DE/DX =   -0.0001              !
 ! R12   R(11,13)                1.1023         -DE/DX =   -0.0002              !
 ! R13   R(11,14)                1.1038         -DE/DX =   -0.0001              !
 ! A1    A(2,1,3)              107.575          -DE/DX =    0.0                 !
 ! A2    A(2,1,4)              107.5753         -DE/DX =    0.0                 !
 ! A3    A(2,1,5)              111.6358         -DE/DX =   -0.0001              !
 ! A4    A(3,1,4)              107.3349         -DE/DX =    0.0                 !
 ! A5    A(3,1,5)              111.2541         -DE/DX =    0.0                 !
 ! A6    A(4,1,5)              111.2538         -DE/DX =    0.0                 !
 ! A7    A(1,5,6)              109.5334         -DE/DX =    0.0                 !
 ! A8    A(1,5,7)              109.5341         -DE/DX =    0.0                 !
 ! A9    A(1,5,8)              113.4292         -DE/DX =   -0.0001              !
 ! A10   A(6,5,7)              105.8166         -DE/DX =    0.0                 !
 ! A11   A(6,5,8)              109.1222         -DE/DX =    0.0                 !
 ! A12   A(7,5,8)              109.1228         -DE/DX =    0.0                 !
 ! A13   A(5,8,9)              109.1224         -DE/DX =    0.0                 !
 ! A14   A(5,8,10)             109.1227         -DE/DX =    0.0                 !
 ! A15   A(5,8,11)             113.4292         -DE/DX =   -0.0001              !
 ! A16   A(9,8,10)             105.8166         -DE/DX =    0.0                 !
 ! A17   A(9,8,11)             109.5338         -DE/DX =    0.0                 !
[...]
 ! A23   A(12,11,14)           107.3349         -DE/DX =    0.0                 !
 ! A24   A(13,11,14)           107.5752         -DE/DX =    0.0                 !
 ! D1    D(2,1,5,6)             57.8145         -DE/DX =    0.0                 !
 ! D2    D(2,1,5,7)            -57.8267         -DE/DX =    0.0                 !
 ! D3    D(2,1,5,8)           -180.0067         -DE/DX =    0.0                 !
 ! D4    D(3,1,5,6)            -62.373          -DE/DX =    0.0                 !
 ! D5    D(3,1,5,7)           -178.0142         -DE/DX =    0.0                 !
 ! D6    D(3,1,5,8)             59.8058         -DE/DX =    0.0                 !
 ! D7    D(4,1,5,6)            178.002          -DE/DX =    0.0                 !
 ! D8    D(4,1,5,7)             62.3608         -DE/DX =    0.0                 !
 ! D9    D(4,1,5,8)            -59.8192         -DE/DX =    0.0                 !
 ! D10   D(1,5,8,9)             57.5941         -DE/DX =    0.0                 !
 ! D11   D(1,5,8,10)           -57.5907         -DE/DX =    0.0                 !
 ! D12   D(1,5,8,11)           180.0017         -DE/DX =    0.0                 !
 ! D13   D(6,5,8,9)            180.0011         -DE/DX =    0.0                 !
 ! D14   D(6,5,8,10)            64.8162         -DE/DX =    0.0                 !
 ! D15   D(6,5,8,11)           -57.5914         -DE/DX =    0.0                 !
 ! D16   D(7,5,8,9)            -64.8141         -DE/DX =    0.0                 !
 ! D17   D(7,5,8,10)           180.0011         -DE/DX =    0.0                 !
 ! D18   D(7,5,8,11)            57.5935         -DE/DX =    0.0                 !
 ! D19   D(5,8,11,12)           59.8118         -DE/DX =    0.0                 !
 ! D20   D(5,8,11,13)          179.9993         -DE/DX =    0.0                 !
 ! D21   D(5,8,11,14)          -59.8132         -DE/DX =    0.0                 !
 ! D22   D(9,8,11,12)         -178.0089         -DE/DX =    0.0                 !
 ! D23   D(9,8,11,13)          -57.8215         -DE/DX =    0.0                 !
 ! D24   D(9,8,11,14)           62.3661         -DE/DX =    0.0                 !
 ! D25   D(10,8,11,12)         -62.3677         -DE/DX =    0.0                 !
 ! D26   D(10,8,11,13)          57.8198         -DE/DX =    0.0                 !
 ! D27   D(10,8,11,14)         178.0073         -DE/DX =    0.0                 !
 --------------------------------------------------------------------------------
 GradGradGradGradGradGradGradGradGradGradGradGradGradGradGradGradGradGrad


 ----------------------------------------------------------------------

 Electric dipole moment (input orientation):
 (Debye = 10**-18 statcoulomb cm , SI units = C m)
                  (au)            (Debye)         (10**-30 SI)
   Tot        0.000000D+00      0.000000D+00      0.000000D+00
   x          0.000000D+00      0.000000D+00      0.000000D+00
   y          0.000000D+00      0.000000D+00      0.000000D+00
   z          0.000000D+00      0.000000D+00      0.000000D+00

 Dipole polarizability, Alpha (input orientation).
 (esu units = cm**3 , SI units = C**2 m**2 J**-1)
 Alpha(0;0):
               (au)            (10**-24 esu)      (10**-40 SI)
   iso        0.475824D+02      0.705099D+01      0.784528D+01
   aniso      0.103008D+02      0.152642D+01      0.169837D+01
   xx         0.439982D+02      0.651986D+01      0.725432D+01
   yx         0.351455D+00      0.520802D-01      0.579471D-01
   yy         0.505874D+02      0.749628D+01      0.834073D+01
   zx         0.127862D+01      0.189473D+00      0.210817D+00
   zy         0.474388D+01      0.702970D+00      0.782160D+00
   zz         0.481617D+02      0.713682D+01      0.794079D+01

 ----------------------------------------------------------------------

 Dipole orientation:
     6         -4.23688012          0.34220368          6.42895584
     1         -3.56122436         -1.62812316          6.45343597
     1         -5.41726179          0.58214783          4.72607846
     1         -5.47625181          0.60367314          8.08613504
     6         -2.04014604          2.22321502          6.45548369
     1         -0.79759496          1.87000287          4.81182995
     1         -0.85635971          1.89164145          8.14634601
     6         -2.89324045          4.99035815          6.42247456
     1         -4.13576409          5.34358444          8.06614810
     1         -4.07705499          5.32191774          4.73163126
     6         -0.69650498          6.87136904          6.44892460
     1          0.54296388          6.60972718          4.79184267
     1         -1.37215636          8.84169428          6.42419562
     1          0.48377628          6.63159862          8.15189351

 Electric dipole moment (dipole orientation):
 (Debye = 10**-18 statcoulomb cm , SI units = C m)
                  (au)            (Debye)         (10**-30 SI)
   Tot        0.000000D+00      0.000000D+00      0.000000D+00
   x          0.000000D+00      0.000000D+00      0.000000D+00
   y          0.000000D+00      0.000000D+00      0.000000D+00
   z          0.000000D+00      0.000000D+00      0.000000D+00

 Dipole polarizability, Alpha (dipole orientation).
 (esu units = cm**3 , SI units = C**2 m**2 J**-1)
 Alpha(0;0):
               (au)            (10**-24 esu)      (10**-40 SI)
   iso        0.475824D+02      0.705099D+01      0.784528D+01
   aniso      0.103008D+02      0.152642D+01      0.169837D+01
   xx         0.467730D+02      0.693105D+01      0.771183D+01
   yx         0.364553D+01      0.540211D+00      0.601066D+00
   yy         0.526332D+02      0.779944D+01      0.867805D+01
   zx         0.368164D-01      0.545562D-02      0.607020D-02
   zy         0.387985D-02      0.574935D-03      0.639701D-03
   zz         0.433410D+02      0.642248D+01      0.714597D+01

 ----------------------------------------------------------------------
 1\1\GINC-LSQC03\Freq\RB3LYP\CC-pVDZ\C4H10\QINGCHUN\19-Jun-2020\0\\#N G
 eom=AllCheck Guess=TCheck SCRF=Check GenChk RB3LYP/CC-pVDZ Freq\\cc-pV
 DZ\\0,1\C,-4.0497101091,-0.4830058969,-0.0131056503\H,-3.6916436596,-1
 .5254651551,-0.0270438954\H,-3.6990708707,0.002260774,-0.9404021451\H,
 -5.1524860052,-0.508834353,-0.0521528124\C,-3.5558670531,0.2667461122,
 1.2263712372\H,-2.450232467,0.2444585474,1.2560558743\H,-3.8926903202,
 -0.2625949617,2.1375016209\C,-4.0304331363,1.7225584694,1.2871988407\H
 ,-5.1360690722,1.7448476845,1.2575334939\H,-3.6936253223,2.2518919555,
 0.3760593843\C,-3.536556415,2.4723223397,2.5266551783\H,-2.4337783102,
 2.4980414905,2.5657431257\H,-3.8945152158,3.5148194427,2.5405276409\H,
 -3.8872795232,1.9871363107,3.453960847\\Version=ES64L-G16RevA.03\State
 =1-A\HF=-158.4587705\RMSD=6.398e-10\RMSF=7.680e-05\ZeroPoint=0.1309986
 \Thermal=0.1367614\Dipole=-0.0000002,0.,0.0000001\DipoleDeriv=0.121459
 3,0.0138628,0.0023694,-0.0071225,0.0536516,-0.0526229,-0.0096978,-0.01
 82935,0.0984825,0.0362795,0.0660643,-0.0074877,0.0500283,-0.1741164,-0
 .0551913,-0.0167154,-0.0289607,0.0200809,0.026693,-0.0437015,0.0499551
 ,-0.0414237,0.0017883,0.0918497,0.0333174,0.0380449,-0.1264242,-0.1669
 405,-0.0270613,-0.0380833,0.0109474,0.0499992,-0.0127309,0.0017363,-0.
 0248451,0.0189928,0.1531208,0.0030647,-0.0256236,0.0158644,0.1238808,-
 0.0004924,-0.0182714,-0.0214344,0.1276352,-0.1928678,0.0163073,-0.0342
 252,-0.0110678,-0.0053467,-0.0257391,-0.0253944,-0.0196827,0.0159206,0
 .0222549,-0.0285353,0.0530974,-0.0172288,-0.0498572,0.0549291,0.035021
 6,0.0751695,-0.1546864,0.1531215,0.0030622,-0.0256324,0.0158617,0.1238
 789,-0.0004937,-0.018265,-0.0214305,0.1276365,-0.192868,0.0163105,-0.0
 34222,-0.011067,-0.0053457,-0.0257385,-0.0253912,-0.0196814,0.015922,0
 .0222555,-0.0285338,0.0530958,-0.0172279,-0.049856,0.054928,0.035021,0
 .0751662,-0.1546906,0.1214561,0.0138588,0.0023685,-0.0071191,0.0536518
 ,-0.052626,-0.0096999,-0.0182924,0.0984855,-0.1669402,-0.0270402,-0.03
 80873,0.0109698,0.0499993,-0.0127259,0.0017285,-0.0248461,0.0189951,0.
 036293,0.0660446,-0.0074955,0.0500136,-0.1741302,-0.0551822,-0.0167163
 ,-0.028946,0.0200811,0.0266828,-0.043703,0.0499708,-0.0414283,0.001802
 5,0.091836,0.0333267,0.0380323,-0.126431\Polar=43.998184,0.3514548,50.
 5873831,1.2786242,4.7438795,48.1616782\Quadrupole=0.2330718,-0.0323282
 ,-0.2007436,-0.0222821,-0.2605174,-0.2762109\PG=C01 [X(C4H10)]\NImag=0
 \\0.54712593,-0.01693094,0.54502881,-0.02278509,-0.03349564,0.49853630
 ,-0.07421797,0.08368138,-0.00016110,0.07695626,0.08249552,-0.28018040,
 -0.00051486,-0.08988244,0.30363576,-0.00084327,0.00142486,-0.04525317,
 0.00179156,0.00217613,0.04843695,-0.07365494,-0.03855598,0.07131312,0.
 00297469,0.00467329,-0.00974587,0.07582515,-0.03871331,-0.09856055,0.0
 9804082,-0.01072929,-0.01257257,0.02433011,0.04332360,0.10405217,0.070
 37860,0.09650983,-0.22445535,-0.00050914,-0.00032839,0.00031785,-0.075
 85710,-0.10485155,0.24723399,-0.30532282,-0.00462449,-0.00531212,-0.00
 957557,-0.00057388,0.00017124,-0.00947784,0.00033221,-0.00040418,0.332
 00057,-0.00356481,-0.04562130,-0.00017319,0.02992699,0.00143124,0.0002
 7343,-0.01469408,-0.00087597,-0.00089797,0.00560559,0.04584605,-0.0038
 5741,-0.00011964,-0.04572966,-0.00037795,0.00022726,-0.00113560,0.0262
 9700,-0.00069153,0.00081137,0.00782803,0.00268136,0.04926747,-0.090942
 65,-0.01820252,-0.03336125,0.00278927,0.00530535,0.01058004,0.00325165
 ,0.00604907,0.00920110,-0.01079374,-0.01629245,-0.02854623,0.56178446,
 -0.01906800,-0.10404851,-0.04679085,-0.01206896,-0.01329388,-0.0263552
 0,0.00549199,0.00683051,0.01242084,0.00003405,-0.00120790,-0.00053458,
 0.01457081,0.47469065,-0.03385978,-0.04537296,-0.15846625,0.00058321,0
 .00207441,0.00033757,-0.01023226,-0.01406803,-0.02311036,-0.00003909,0
 .00015221,-0.00102676,-0.01938990,-0.03601696,0.52630183,-0.01025859,-
 0.00002646,0.00008691,0.00053323,-0.00056628,-0.00005414,0.00063825,0.
 00032544,-0.00040001,0.00089127,-0.00111228,-0.00207284,-0.29593615,0.
 00319462,-0.00278544,0.32361860,-0.01706415,-0.00096286,-0.00064846,-0
 .00011094,0.00027097,0.00060337,0.00077413,0.00054123,0.00022983,-0.00
 102318,-0.00096766,-0.00337240,0.00223560,-0.04623062,0.00103810,-0.00
 448303,0.05338019,-0.02823959,-0.00049296,-0.00165888,0.00062040,0.000
 25688,0.00099364,0.00009304,0.00075577,0.00100283,-0.00235595,-0.00295
 250,-0.00417538,-0.00109320,0.00094790,-0.04717609,0.00521136,0.002459
 08,0.05040258,0.00298682,0.00518417,-0.00998945,0.00018995,0.00020603,
 0.00066157,0.00040725,-0.00082654,-0.00244235,0.00073999,0.00069013,0.
 00008625,-0.07389634,-0.03883691,0.06666931,-0.01050549,-0.01507142,0.
 02573621,0.07574992,0.00546552,0.00715260,-0.01511190,0.00045445,0.000
 78326,0.00043600,-0.00129511,-0.00090323,-0.00343964,0.00017742,0.0004
 4732,0.00078740,-0.03779693,-0.10251475,0.09760868,-0.00009208,-0.0002
 5525,-0.00050772,0.04106214,0.11602726,0.00869760,0.01215358,-0.023018
 87,0.00039188,-0.00036925,0.00082346,-0.00237680,-0.00323877,-0.003755
 94,-0.00044346,0.00036620,0.00099610,0.06502313,0.09756681,-0.21292926
 ,0.00044665,-0.00024403,0.00003713,-0.07060902,-0.10526706,0.23562032,
 0.00393699,-0.01113308,0.00102201,-0.00062150,-0.00225558,-0.00270754,
 -0.00002932,0.00054584,0.00021820,0.00045872,-0.00143942,-0.00042090,-
 0.09080255,0.03608586,-0.00078346,-0.01207911,0.03302900,0.00036084,0.
 00288073,-0.01070194,-0.00010295,0.56178244,0.00370442,-0.01971101,-0.
 00493178,-0.00060258,0.00025769,-0.00097521,0.00014707,0.00165323,0.00
 186824,0.00088419,0.00115420,0.00129744,0.03608676,-0.17697914,0.00190
 892,0.00027965,-0.00272795,0.00007577,0.00618391,-0.01787235,-0.000481
 90,0.01456966,0.47469008,0.00955759,-0.02921199,-0.00176647,-0.0017567
 4,-0.00368111,-0.00475213,0.00029076,-0.00070870,0.00085885,0.00061362
 ,0.00072340,0.00086921,-0.00078313,0.00190959,-0.07782211,0.00005684,-
 0.00061250,-0.00075201,-0.00892415,0.02616648,-0.00056663,-0.01939139,
 -0.03601722,0.52630437,0.00053761,-0.00090924,-0.00035346,0.00047565,0
 .00005885,0.00000335,-0.00001157,0.00001836,0.00001207,0.00057532,0.00
 053458,0.00063783,-0.01207888,0.00027959,0.00005691,0.00074245,0.00252
 146,-0.00036685,0.00077835,0.00025659,-0.00042209,-0.29593481,0.003194
 95,-0.00278103,0.32361733,0.00084361,0.00166641,0.00088732,-0.00030167
 ,0.00021389,0.00028756,-0.00009366,-0.00006109,-0.00008402,-0.00083339
 ,-0.00013577,-0.00035834,0.03302910,-0.00272766,-0.00061276,0.00252154
 ,-0.00603225,-0.00042623,-0.00042266,0.00130074,0.00024057,0.00223586,
 -0.04623113,0.00103760,-0.00448363,0.05337988,0.00087675,0.00020879,0.
 00020547,-0.00014694,0.00009768,-0.00006290,0.00010088,0.00002752,0.00
 003074,-0.00016588,-0.00020181,0.00014918,0.00036097,0.00007598,-0.000
 75197,-0.00036692,-0.00042622,0.00079676,-0.00063130,-0.00024805,0.000
 20696,-0.00108847,0.00094746,-0.04717597,0.00520624,0.00245875,0.05040
 240,-0.00000900,-0.00035875,-0.00003976,-0.00008768,-0.00002272,-0.000
 21837,0.00017260,-0.00024199,0.00000848,-0.00001544,-0.00000620,0.0001
 4950,0.00288065,0.00618383,-0.00892422,0.00077829,-0.00042266,-0.00063
 125,0.00060838,0.00246070,-0.00045694,-0.07389441,-0.03883483,0.066667
 26,-0.01050504,-0.01507118,0.02573653,0.07574737,-0.00032992,0.0015147
 3,0.00159794,0.00026977,0.00045576,-0.00026059,0.00008496,-0.00003593,
 -0.00122750,-0.00001559,-0.00004177,-0.00008418,-0.01070159,-0.0178725
 5,0.02616650,0.00025662,0.00130064,-0.00024804,0.00246076,-0.00605828,
 -0.00044962,-0.03779494,-0.10251300,0.09760933,-0.00009208,-0.00025522
 ,-0.00050780,0.04105994,0.11602608,-0.00024525,-0.00063994,0.00090363,
 -0.00010718,0.00004045,0.00025866,0.00021349,0.00031960,0.00045235,-0.
 00000913,0.00000296,0.00001539,-0.00010279,-0.00048189,-0.00056690,-0.
 00042210,0.00024059,0.00020694,-0.00045701,-0.00044959,0.00095687,0.06
 502139,0.09756754,-0.21293389,0.00044683,-0.00024371,0.00003665,-0.070
 60707,-0.10526696,0.23562581,-0.00130116,0.00235209,-0.00007359,0.0006
 4897,0.00078129,0.00055281,-0.00001079,-0.00006872,-0.00016706,0.00048
 138,0.00009749,0.00000780,0.00393670,0.00370379,0.00955676,0.00053763,
 0.00084397,0.00087700,-0.00000901,-0.00032991,-0.00024523,-0.09094375,
 -0.01906974,-0.03386090,-0.01025903,-0.01706419,-0.02823916,0.00298717
 ,0.00546554,0.00869756,0.54712173,0.00235218,-0.00557129,0.00089126,-0
 .00056514,-0.00073132,-0.00168245,0.00017159,0.00005831,-0.00024764,-0
 .00008266,-0.00003355,0.00007484,-0.01113372,-0.01971142,-0.02921195,-
 0.00090943,0.00166640,0.00020862,-0.00035868,0.00151482,-0.00063960,-0
 .01820334,-0.10404927,-0.04537308,-0.00002611,-0.00096216,-0.00049222,
 0.00518433,0.00715208,0.01215265,-0.01693108,0.54502922,-0.00007384,0.
 00089123,-0.00003749,-0.00022169,0.00052073,0.00052271,-0.00015204,-0.
 00016943,0.00030931,0.00002754,-0.00010209,-0.00009113,0.00102188,-0.0
 0493151,-0.00176577,-0.00035358,0.00088744,0.00020547,-0.00003976,0.00
 159756,0.00090353,-0.03336249,-0.04679044,-0.15846436,0.00008714,-0.00
 064788,-0.00165861,-0.00998986,-0.01511255,-0.02301922,-0.02278690,-0.
 03349710,0.49854004,0.00048146,-0.00008264,0.00002753,0.00000060,-0.00
 009528,-0.00007962,-0.00003290,0.00001877,-0.00000857,0.00007046,0.000
 19625,0.00017761,0.00045883,0.00088455,0.00061390,0.00057544,-0.000833
 49,-0.00016592,-0.00001547,-0.00001564,-0.00000913,-0.01079452,0.00003
 456,-0.00003925,0.00089116,-0.00102310,-0.00235614,0.00073982,0.000177
 33,-0.00044348,-0.30532103,-0.00459847,-0.00532167,0.33199905,0.000097
 42,-0.00003352,-0.00010204,0.00006682,-0.00001169,0.00000263,-0.000008
 61,0.00000785,0.00003608,0.00019624,0.00000898,0.00008933,-0.00143965,
 0.00115424,0.00072327,0.00053459,-0.00013568,-0.00020178,-0.00000622,-
 0.00004181,0.00000299,-0.01629286,-0.00120671,0.00015143,-0.00111251,-
 0.00096784,-0.00295265,0.00069005,0.00044716,0.00036619,-0.00353829,-0
 .04562031,-0.00017254,0.00557675,0.04584573,0.00000787,0.00007491,-0.0
 0009112,0.00011556,-0.00001079,0.00001707,-0.00002429,0.00001384,-0.00
 003359,0.00017759,0.00008935,0.00006634,-0.00042102,0.00129754,0.00086
 941,0.00063790,-0.00035837,0.00014917,0.00014952,-0.00008418,0.0000154
 0,-0.02854534,-0.00053206,-0.00102713,-0.00207279,-0.00337220,-0.00417
 519,0.00008633,0.00078736,0.00099581,-0.00386731,-0.00011935,-0.045730
 60,0.00783845,0.00268103,0.04926761,0.00064907,-0.00056513,-0.00022165
 ,-0.00006358,-0.00012995,-0.00019102,-0.00000235,-0.00000844,-0.000030
 88,0.00000060,0.00006681,0.00011558,-0.00062178,-0.00060228,-0.0017566
 7,0.00047571,-0.00030165,-0.00014693,-0.00008767,0.00026979,-0.0001071
 5,0.00278852,-0.01206941,0.00058419,0.00053295,-0.00011082,0.00062042,
 0.00019012,0.00045450,0.00039189,-0.07420082,0.08365957,-0.00016661,-0
 .00957260,0.02992807,-0.00037978,0.07693741,0.00078124,-0.00073134,0.0
 0052079,-0.00012995,-0.00025647,-0.00036447,0.00000581,-0.00000224,-0.
 00012466,-0.00009528,-0.00001171,-0.00001080,-0.00225567,0.00025780,-0
 .00368109,0.00005879,0.00021393,0.00009769,-0.00002273,0.00045571,0.00
 004050,0.00530450,-0.01329424,0.00207511,-0.00056628,0.00027085,0.0002
 5677,0.00020614,0.00078349,-0.00036922,0.08247408,-0.28019773,-0.00050
 001,-0.00057268,0.00142817,0.00022714,-0.08985917,0.30365446,0.0005528
 3,-0.00168243,0.00052264,-0.00019098,-0.00036445,-0.00051473,0.0000792
 4,0.00010385,0.00001060,-0.00007962,0.00000261,0.00001706,-0.00270772,
 -0.00097552,-0.00475195,0.00000334,0.00028757,-0.00006291,-0.00021836,
 -0.00026061,0.00025863,0.01057770,-0.02635591,0.00033869,-0.00005417,0
 .00060339,0.00099341,0.00066163,0.00043586,0.00082371,-0.00084854,0.00
 144003,-0.04525299,0.00017097,0.00027440,-0.00113559,0.00179718,0.0021
 5984,0.04843711,-0.00001075,0.00017159,-0.00015209,-0.00000235,0.00000
 580,0.00007926,-0.00004986,-0.00002500,0.00000082,-0.00003289,-0.00000
 861,-0.00002426,-0.00002946,0.00014706,0.00029073,-0.00001154,-0.00009
 366,0.00010084,0.00017260,0.00008500,0.00021349,0.00325258,0.00549140,
 -0.01023366,0.00063852,0.00077421,0.00009301,0.00040718,-0.00129530,-0
 .00237716,-0.07366799,-0.03855903,0.07133188,-0.00948031,-0.01469180,0
 .02629730,0.00297442,0.00467120,-0.00974352,0.07583985,-0.00006878,0.0
 0005823,-0.00016940,-0.00000845,-0.00000226,0.00010383,-0.00002499,-0.
 00013173,0.00013654,0.00001877,0.00000784,0.00001383,0.00054584,0.0016
 5323,-0.00070835,0.00001833,-0.00006109,0.00002750,-0.00024198,-0.0000
 3604,0.00031957,0.00605041,0.00682961,-0.01406834,0.00032547,0.0005413
 6,0.00075581,-0.00082666,-0.00090318,-0.00323865,-0.03871630,-0.098543
 80,0.09802660,0.00033309,-0.00087455,-0.00069421,-0.01073189,-0.012570
 68,0.02433138,0.04332714,0.10403306,-0.00016701,-0.00024765,0.00030922
 ,-0.00003088,-0.00012468,0.00001060,0.00000081,0.00013652,0.00032736,-
 0.00000860,0.00003605,-0.00003360,0.00021811,0.00186784,0.00085862,0.0
 0001203,-0.00008400,0.00003075,0.00000852,-0.00122737,0.00045228,0.009
 20239,0.01241917,-0.02311041,-0.00039998,0.00022994,0.00100306,-0.0024
 4226,-0.00343976,-0.00375581,0.07039676,0.09649599,-0.22446090,-0.0004
 0469,-0.00089835,0.00081242,-0.00050856,-0.00032758,0.00031632,-0.0758
 7665,-0.10483612,0.24724009\\0.00003149,-0.00005439,0.00001889,0.00003
 424,-0.00016358,-0.00003940,0.00004205,0.00005389,-0.00008123,-0.00010
 462,0.00000186,0.00001038,-0.00012360,0.00017737,-0.00009666,0.0000753
 5,0.00000127,0.00000496,-0.00002220,-0.00003334,0.00006607,0.00012287,
 -0.00017763,0.00009709,-0.00007596,-0.00000189,-0.00000516,0.00002186,
 0.00003362,-0.00006530,-0.00003078,0.00005464,-0.00001931,0.00010531,-
 0.00000182,-0.00000961,-0.00003356,0.00016382,0.00003899,-0.00004243,-
 0.00005381,0.00008028\\\@


 In the beginning the Universe was created.
 This has made a lot of people very angry
 and been widely regarded as a bad move.
                               -D.Adams
 Job cpu time:       0 days  0 hours  8 minutes 59.8 seconds.
 Elapsed time:       0 days  0 hours  1 minutes  8.2 seconds.
 File lengths (MBytes):  RWF=     21 Int=      0 D2E=      0 Chk=      2 Scr=      1
 Normal termination of Gaussian 16 at Fri Jun 19 09:25:29 2020.
