 Entering Gaussian System, Link 0=g16
 Input=C6H12_opt.gjf
 Output=C6H12_opt.log
 Initial command:
 /home/qingchun/software/g16A_modified_by_qingchun/g16/l1.exe "/scratch/qingchun/gaussian/Gau-32424.inp" -scrdir="/scratch/qingchun/gaussian/"
 Entering Link 1 = /home/qingchun/software/g16A_modified_by_qingchun/g16/l1.exe PID=     32425.
  
 Copyright (c) 1988,1990,1992,1993,1995,1998,2003,2009,2016,
            Gaussian, Inc.  All Rights Reserved.
  
 This is part of the Gaussian(R) 16 program.  It is based on
 the Gaussian(R) 09 system (copyright 2009, Gaussian, Inc.),
 the Gaussian(R) 03 system (copyright 2003, Gaussian, Inc.),
 the Gaussian(R) 98 system (copyright 1998, Gaussian, Inc.),
 the Gaussian(R) 94 system (copyright 1995, Gaussian, Inc.),
 the Gaussian 92(TM) system (copyright 1992, Gaussian, Inc.),
 the Gaussian 90(TM) system (copyright 1990, Gaussian, Inc.),
 the Gaussian 88(TM) system (copyright 1988, Gaussian, Inc.),
 the Gaussian 86(TM) system (copyright 1986, Carnegie Mellon
 University), and the Gaussian 82(TM) system (copyright 1983,
 Carnegie Mellon University). Gaussian is a federally registered
 trademark of Gaussian, Inc.
  
 This software contains proprietary and confidential information,
 including trade secrets, belonging to Gaussian, Inc.
  
 This software is provided under written license and may be
 used, copied, transmitted, or stored only in accord with that
 written license.
  
 The following legend is applicable only to US Government
 contracts under FAR:
  
                    RESTRICTED RIGHTS LEGEND
  
 Use, reproduction and disclosure by the US Government is
 subject to restrictions as set forth in subparagraphs (a)
 and (c) of the Commercial Computer Software - Restricted
 Rights clause in FAR 52.227-19.
  
 Gaussian, Inc.
 340 Quinnipiac St., Bldg. 40, Wallingford CT 06492
  
  
 ---------------------------------------------------------------
 Warning -- This program may not be used in any manner that
 competes with the business of Gaussian, Inc. or will provide
 assistance to any competitor of Gaussian, Inc.  The licensee
 of this program is prohibited from giving any competitor of
 Gaussian, Inc. access to this program.  By using this program,
 the user acknowledges that Gaussian, Inc. is engaged in the
 business of creating and licensing software in the field of
 computational chemistry and represents and warrants to the
 licensee that it is not a competitor of Gaussian, Inc. and that
 it will not use this program in any manner prohibited above.
 ---------------------------------------------------------------
  

 Cite this work as:
 Gaussian 16, Revision A.03,
 M. J. Frisch, G. W. Trucks, H. B. Schlegel, G. E. Scuseria, 
 M. A. Robb, J. R. Cheeseman, G. Scalmani, V. Barone, 
 G. A. Petersson, H. Nakatsuji, X. Li, M. Caricato, A. V. Marenich, 
 J. Bloino, B. G. Janesko, R. Gomperts, B. Mennucci, H. P. Hratchian, 
 J. V. Ortiz, A. F. Izmaylov, J. L. Sonnenberg, D. Williams-Young, 
 F. Ding, F. Lipparini, F. Egidi, J. Goings, B. Peng, A. Petrone, 
 T. Henderson, D. Ranasinghe, V. G. Zakrzewski, J. Gao, N. Rega, 
 G. Zheng, W. Liang, M. Hada, M. Ehara, K. Toyota, R. Fukuda, 
 J. Hasegawa, M. Ishida, T. Nakajima, Y. Honda, O. Kitao, H. Nakai, 
 T. Vreven, K. Throssell, J. A. Montgomery, Jr., J. E. Peralta, 
 F. Ogliaro, M. J. Bearpark, J. J. Heyd, E. N. Brothers, K. N. Kudin, 
 V. N. Staroverov, T. A. Keith, R. Kobayashi, J. Normand, 
 K. Raghavachari, A. P. Rendell, J. C. Burant, S. S. Iyengar, 
 J. Tomasi, M. Cossi, J. M. Millam, M. Klene, C. Adamo, R. Cammi, 
 J. W. Ochterski, R. L. Martin, K. Morokuma, O. Farkas, 
 J. B. Foresman, and D. J. Fox, Gaussian, Inc., Wallingford CT, 2016.
 
 ******************************************
 Gaussian 16:  ES64L-G16RevA.03 25-Dec-2016
                26-May-2020 
 ******************************************
 %nprocshared=8
 Will use up to    8 processors via shared memory.
 %mem=30GB
 %chk=C6H12_opt.chk
 ------------------------
 # opt freq b3lyp/cc-pvdz
 ------------------------
 1/18=20,19=15,26=3,38=1/1,3;
 2/9=110,12=2,17=6,18=5,40=1/2;
 3/5=16,11=2,25=1,30=1,71=1,74=-5/1,2,3;
 4//1;
 5/5=2,38=5/2;
 6/7=2,8=2,9=2,10=2,28=1/1;
 7//1,2,3,16;
 1/18=20,19=15,26=3/3(2);
 2/9=110/2;
 99//99;
 2/9=110/2;
 3/5=16,11=2,25=1,30=1,71=1,74=-5/1,2,3;
 4/5=5,16=3,69=1/1;
 5/5=2,38=5/2;
 7//1,2,3,16;
 1/18=20,19=15,26=3/3(-5);
 2/9=110/2;
 6/7=2,8=2,9=2,10=2,19=2,28=1/1;
 99/9=1/99;
 -------
 cc-pVDZ
 -------
 Symbolic Z-matrix:
 Charge =  0 Multiplicity = 1
 C                    -1.66407  -0.94587   0.68689 
 C                    -0.14896  -0.94587   0.68689 
 C                     0.40297   0.46521   0.68689 
 C                    -0.14669   1.26975   1.84755 
 C                    -1.66182   1.27041   1.84706 
 C                    -2.21462  -0.14021   1.84576 
 H                     1.52157   0.43122   0.7496 
 H                     0.22359  -1.4915    1.59345 
 H                     0.22633  -1.49573  -0.21502 
 H                    -2.03676  -0.51284  -0.2785 
 H                    -2.03967  -2.00009   0.75039 
 H                     0.22584   0.8349    2.81216 
 H                     0.22933   2.32388   1.78555 
 H                    -2.03714   1.81983   2.74917 
 H                    -2.03367   1.81701   0.94074 
 H                    -1.94862  -0.64594   2.81108 
 H                    -3.33317  -0.10515   1.78083 
 H                     0.13435   0.97084  -0.27766 
 

 GradGradGradGradGradGradGradGradGradGradGradGradGradGradGradGradGradGrad
 Berny optimization.
 Initialization pass.
                           ----------------------------
                           !    Initial Parameters    !
                           ! (Angstroms and Degrees)  !
 --------------------------                            --------------------------
 ! Name  Definition              Value          Derivative Info.                !
 --------------------------------------------------------------------------------
 ! R1    R(1,2)                  1.5151         estimate D2E/DX2                !
 ! R2    R(1,6)                  1.515          estimate D2E/DX2                !
 ! R3    R(1,10)                 1.1218         estimate D2E/DX2                !
 ! R4    R(1,11)                 1.1209         estimate D2E/DX2                !
 ! R5    R(2,3)                  1.5152         estimate D2E/DX2                !
 ! R6    R(2,8)                  1.1218         estimate D2E/DX2                !
 ! R7    R(2,9)                  1.121          estimate D2E/DX2                !
 ! R8    R(3,4)                  1.5154         estimate D2E/DX2                !
 ! R9    R(3,7)                  1.1209         estimate D2E/DX2                !
 ! R10   R(3,18)                 1.1217         estimate D2E/DX2                !
 ! R11   R(4,5)                  1.5151         estimate D2E/DX2                !
 ! R12   R(4,12)                 1.1218         estimate D2E/DX2                !
 ! R13   R(4,13)                 1.1209         estimate D2E/DX2                !
 ! R14   R(5,6)                  1.5151         estimate D2E/DX2                !
 ! R15   R(5,14)                 1.121          estimate D2E/DX2                !
 ! R16   R(5,15)                 1.1218         estimate D2E/DX2                !
 ! R17   R(6,16)                 1.1218         estimate D2E/DX2                !
 ! R18   R(6,17)                 1.121          estimate D2E/DX2                !
 ! A1    A(2,1,6)              111.3094         estimate D2E/DX2                !
 ! A2    A(2,1,10)             109.4042         estimate D2E/DX2                !
 ! A3    A(2,1,11)             109.5772         estimate D2E/DX2                !
 ! A4    A(6,1,10)             109.4074         estimate D2E/DX2                !
 ! A5    A(6,1,11)             109.5749         estimate D2E/DX2                !
 ! A6    A(10,1,11)            107.4863         estimate D2E/DX2                !
 ! A7    A(1,2,3)              111.3625         estimate D2E/DX2                !
 ! A8    A(1,2,8)              109.3968         estimate D2E/DX2                !
 ! A9    A(1,2,9)              109.5595         estimate D2E/DX2                !
 ! A10   A(3,2,8)              109.3908         estimate D2E/DX2                !
 ! A11   A(3,2,9)              109.5638         estimate D2E/DX2                !
 ! A12   A(8,2,9)              107.4839         estimate D2E/DX2                !
 ! A13   A(2,3,4)              111.2413         estimate D2E/DX2                !
 ! A14   A(2,3,7)              109.59           estimate D2E/DX2                !
 ! A15   A(2,3,18)             109.4252         estimate D2E/DX2                !
 ! A16   A(4,3,7)              109.586          estimate D2E/DX2                !
 ! A17   A(4,3,18)             109.4158         estimate D2E/DX2                !
 ! A18   A(7,3,18)             107.5042         estimate D2E/DX2                !
 ! A19   A(3,4,5)              111.2657         estimate D2E/DX2                !
 ! A20   A(3,4,12)             109.4111         estimate D2E/DX2                !
 ! A21   A(3,4,13)             109.5868         estimate D2E/DX2                !
 ! A22   A(5,4,12)             109.4233         estimate D2E/DX2                !
 ! A23   A(5,4,13)             109.5746         estimate D2E/DX2                !
 ! A24   A(12,4,13)            107.5            estimate D2E/DX2                !
 ! A25   A(4,5,6)              111.3744         estimate D2E/DX2                !
 ! A26   A(4,5,14)             109.5589         estimate D2E/DX2                !
 ! A27   A(4,5,15)             109.3871         estimate D2E/DX2                !
 ! A28   A(6,5,14)             109.5649         estimate D2E/DX2                !
 ! A29   A(6,5,15)             109.3914         estimate D2E/DX2                !
 ! A30   A(14,5,15)            107.4801         estimate D2E/DX2                !
 ! A31   A(1,6,5)              111.2962         estimate D2E/DX2                !
 ! A32   A(1,6,16)             109.4108         estimate D2E/DX2                !
 ! A33   A(1,6,17)             109.5686         estimate D2E/DX2                !
 ! A34   A(5,6,16)             109.42           estimate D2E/DX2                !
 ! A35   A(5,6,17)             109.5728         estimate D2E/DX2                !
 ! A36   A(16,6,17)            107.4917         estimate D2E/DX2                !
 ! D1    D(6,1,2,3)            -55.1928         estimate D2E/DX2                !
 ! D2    D(6,1,2,8)             65.8497         estimate D2E/DX2                !
 ! D3    D(6,1,2,9)           -176.5618         estimate D2E/DX2                !
 ! D4    D(10,1,2,3)            65.8411         estimate D2E/DX2                !
 ! D5    D(10,1,2,8)          -173.1163         estimate D2E/DX2                !
 ! D6    D(10,1,2,9)           -55.5279         estimate D2E/DX2                !
 ! D7    D(11,1,2,3)          -176.5529         estimate D2E/DX2                !
 ! D8    D(11,1,2,8)           -55.5104         estimate D2E/DX2                !
 ! D9    D(11,1,2,9)            62.0781         estimate D2E/DX2                !
 ! D10   D(2,1,6,5)             55.0823         estimate D2E/DX2                !
 ! D11   D(2,1,6,16)           -65.9633         estimate D2E/DX2                !
 ! D12   D(2,1,6,17)           176.4253         estimate D2E/DX2                !
 ! D13   D(10,1,6,5)           -65.9498         estimate D2E/DX2                !
 ! D14   D(10,1,6,16)          173.0046         estimate D2E/DX2                !
 ! D15   D(10,1,6,17)           55.3933         estimate D2E/DX2                !
 ! D16   D(11,1,6,5)           176.4437         estimate D2E/DX2                !
 ! D17   D(11,1,6,16)           55.3981         estimate D2E/DX2                !
 ! D18   D(11,1,6,17)          -62.2133         estimate D2E/DX2                !
 ! D19   D(1,2,3,4)             55.2571         estimate D2E/DX2                !
 ! D20   D(1,2,3,7)            176.5953         estimate D2E/DX2                !
 ! D21   D(1,2,3,18)           -65.7573         estimate D2E/DX2                !
 ! D22   D(8,2,3,4)            -65.7889         estimate D2E/DX2                !
 ! D23   D(8,2,3,7)             55.5492         estimate D2E/DX2                !
 ! D24   D(8,2,3,18)           173.1966         estimate D2E/DX2                !
 ! D25   D(9,2,3,4)            176.6237         estimate D2E/DX2                !
 ! D26   D(9,2,3,7)            -62.0382         estimate D2E/DX2                !
 ! D27   D(9,2,3,18)            55.6092         estimate D2E/DX2                !
 ! D28   D(2,3,4,5)            -55.2366         estimate D2E/DX2                !
 ! D29   D(2,3,4,12)            65.7936         estimate D2E/DX2                !
 ! D30   D(2,3,4,13)          -176.5742         estimate D2E/DX2                !
 ! D31   D(7,3,4,5)           -176.5771         estimate D2E/DX2                !
 ! D32   D(7,3,4,12)           -55.5468         estimate D2E/DX2                !
 ! D33   D(7,3,4,13)            62.0853         estimate D2E/DX2                !
 ! D34   D(18,3,4,5)            65.7833         estimate D2E/DX2                !
 ! D35   D(18,3,4,12)         -173.1864         estimate D2E/DX2                !
 ! D36   D(18,3,4,13)          -55.5543         estimate D2E/DX2                !
 ! D37   D(3,4,5,6)             55.2381         estimate D2E/DX2                !
 ! D38   D(3,4,5,14)           176.6158         estimate D2E/DX2                !
 ! D39   D(3,4,5,15)           -65.8064         estimate D2E/DX2                !
 ! D40   D(12,4,5,6)           -65.785          estimate D2E/DX2                !
 ! D41   D(12,4,5,14)           55.5927         estimate D2E/DX2                !
 ! D42   D(12,4,5,15)          173.1705         estimate D2E/DX2                !
 ! D43   D(13,4,5,6)           176.5828         estimate D2E/DX2                !
 ! D44   D(13,4,5,14)          -62.0395         estimate D2E/DX2                !
 ! D45   D(13,4,5,15)           55.5383         estimate D2E/DX2                !
 ! D46   D(4,5,6,1)            -55.1527         estimate D2E/DX2                !
 ! D47   D(4,5,6,16)            65.8876         estimate D2E/DX2                !
 ! D48   D(4,5,6,17)          -176.4932         estimate D2E/DX2                !
 ! D49   D(14,5,6,1)          -176.5268         estimate D2E/DX2                !
 ! D50   D(14,5,6,16)          -55.4866         estimate D2E/DX2                !
 ! D51   D(14,5,6,17)           62.1326         estimate D2E/DX2                !
 ! D52   D(15,5,6,1)            65.8893         estimate D2E/DX2                !
 ! D53   D(15,5,6,16)         -173.0704         estimate D2E/DX2                !
 ! D54   D(15,5,6,17)          -55.4512         estimate D2E/DX2                !
 --------------------------------------------------------------------------------
 Trust Radius=3.00D-01 FncErr=1.00D-07 GrdErr=1.00D-06 EigMax=2.50D+02 EigMin=1.00D-04
 Number of steps in this run=    108 maximum allowed number of steps=    108.
 GradGradGradGradGradGradGradGradGradGradGradGradGradGradGradGradGradGrad

                          Input orientation:                          
 ---------------------------------------------------------------------
 Center     Atomic      Atomic             Coordinates (Angstroms)
 Number     Number       Type             X           Y           Z
 ---------------------------------------------------------------------
      1          6           0       -1.664068   -0.945870    0.686887
      2          6           0       -0.148962   -0.945870    0.686887
      3          6           0        0.402969    0.465208    0.686887
      4          6           0       -0.146694    1.269745    1.847548
      5          6           0       -1.661819    1.270406    1.847059
      6          6           0       -2.214619   -0.140215    1.845763
      7          1           0        1.521568    0.431217    0.749601
      8          1           0        0.223587   -1.491504    1.593449
      9          1           0        0.226332   -1.495729   -0.215023
     10          1           0       -2.036756   -0.512841   -0.278498
     11          1           0       -2.039665   -2.000090    0.750389
     12          1           0        0.225841    0.834900    2.812159
     13          1           0        0.229329    2.323882    1.785553
     14          1           0       -2.037139    1.819834    2.749173
     15          1           0       -2.033674    1.817007    0.940736
     16          1           0       -1.948615   -0.645937    2.811078
     17          1           0       -3.333167   -0.105154    1.780825
     18          1           0        0.134351    0.970841   -0.277659
 ---------------------------------------------------------------------
                    Distance matrix (angstroms):
                    1          2          3          4          5
     1  C    0.000000
     2  C    1.515106   0.000000
     3  C    2.502755   1.515180   0.000000
     4  C    2.925493   2.501217   1.515435   0.000000
     5  C    2.501576   2.923459   2.501538   1.515125   0.000000
     6  C    1.514985   2.501802   2.925970   2.502859   1.515071
     7  H    3.471106   2.165865   1.120871   2.166037   3.470246
     8  H    2.163981   1.121768   2.163967   2.797529   3.353688
     9  H    2.165502   1.120996   2.165621   3.470042   3.933039
    10  H    1.121775   2.164081   2.800144   3.357085   2.799739
    11  H    1.120931   2.165680   3.471050   3.934326   3.470100
    12  H    3.355545   2.797928   2.164446   1.121761   2.164334
    13  H    3.934882   3.470079   2.166076   1.120911   2.165649
    14  H    3.470061   3.932856   3.470182   2.165481   1.120958
    15  H    2.799024   3.354112   2.798040   2.163908   1.121816
    16  H    2.164050   2.800160   3.358091   2.800919   2.164245
    17  H    2.165501   3.470254   3.934555   3.471082   2.165631
    18  H    2.799722   2.164347   1.121681   2.164448   2.798284
                    6          7          8          9         10
     6  C    0.000000
     7  H    3.935378   0.000000
     8  H    2.799016   2.468540   0.000000
     9  H    3.470230   2.514211   1.808479   0.000000
    10  H    2.164017   3.822290   3.093722   2.468130   0.000000
    11  H    2.165546   4.312034   2.468141   2.514188   1.808460
    12  H    2.800110   2.469011   2.626293   3.820427   4.060531
    13  H    3.471063   2.515007   3.820223   4.311814   4.176415
    14  H    2.165512   4.311721   4.172714   4.990262   3.822063
    15  H    2.163916   3.820562   4.058018   4.173443   2.629588
    16  H    1.121760   4.177573   2.629841   3.822280   3.093697
    17  H    1.120980   4.991950   3.821986   4.311281   2.467327
    18  H    3.355745   1.808543   3.093889   2.469079   2.629642
                   11         12         13         14         15
    11  H    0.000000
    12  H    4.173797   0.000000
    13  H    4.991656   1.808590   0.000000
    14  H    4.311260   2.468834   2.513863   0.000000
    15  H    3.821845   3.093892   2.468161   1.808443   0.000000
    16  H    2.467480   2.630806   3.822953   2.468136   3.093785
    17  H    2.515100   3.822812   4.311800   2.514551   2.467617
    18  H    3.822258   3.094160   2.469126   3.820716   2.626940
                   16         17         18
    16  H    0.000000
    17  H    1.808550   0.000000
    18  H    4.061159   4.173584   0.000000
 Stoichiometry    C6H12
 Framework group  C1[X(C6H12)]
 Deg. of freedom    48
 Full point group                 C1      NOp   1
 Largest Abelian subgroup         C1      NOp   1
 Largest concise Abelian subgroup C1      NOp   1
                         Standard orientation:                         
 ---------------------------------------------------------------------
 Center     Atomic      Atomic             Coordinates (Angstroms)
 Number     Number       Type             X           Y           Z
 ---------------------------------------------------------------------
      1          6           0       -1.186514   -0.824435   -0.228101
      2          6           0        0.120979   -1.438637    0.228806
      3          6           0        1.307472   -0.615112   -0.229246
      4          6           0        1.186509    0.824267    0.229118
      5          6           0       -0.120646    1.438706   -0.228500
      6          6           0       -1.307601    0.615182    0.227993
      7          1           0        2.252898   -1.060333    0.176094
      8          1           0        0.127604   -1.510786    1.348232
      9          1           0        0.208155   -2.480218   -0.176337
     10          1           0       -1.247321   -0.867195   -1.347410
     11          1           0       -2.044050   -1.420700    0.178821
     12          1           0        1.246304    0.865329    1.348531
     13          1           0        2.044304    1.421102   -0.176367
     14          1           0       -0.208071    2.480087    0.176998
     15          1           0       -0.126197    1.511420   -1.347943
     16          1           0       -1.375443    0.647202    1.347241
     17          1           0       -2.252347    1.059989   -0.179683
     18          1           0        1.372978   -0.645729   -1.348594
 ---------------------------------------------------------------------
 Rotational constants (GHZ):           4.3680741           4.3634364           2.5063860
 Standard basis: CC-pVDZ (5D, 7F)
 There are   150 symmetry adapted cartesian basis functions of A   symmetry.
 There are   144 symmetry adapted basis functions of A   symmetry.
   144 basis functions,   282 primitive gaussians,   150 cartesian basis functions
    24 alpha electrons       24 beta electrons
       nuclear repulsion energy       256.6415383568 Hartrees.
 NAtoms=   18 NActive=   18 NUniq=   18 SFac= 1.00D+00 NAtFMM=   60 NAOKFM=F Big=F
 Integral buffers will be    131072 words long.
 Raffenetti 2 integral format.
 Two-electron integral symmetry is turned on.
 One-electron integrals computed using PRISM.
 NBasis=   144 RedAO= T EigKep=  3.84D-03  NBF=   144
 NBsUse=   144 1.00D-06 EigRej= -1.00D+00 NBFU=   144
 ExpMin= 1.22D-01 ExpMax= 6.67D+03 ExpMxC= 2.28D+02 IAcc=3 IRadAn=         5 AccDes= 0.00D+00
 Harris functional with IExCor=  402 and IRadAn=       5 diagonalized for initial guess.
 HarFok:  IExCor=  402 AccDes= 0.00D+00 IRadAn=         5 IDoV= 1 UseB2=F ITyADJ=14
 ICtDFT=  3500011 ScaDFX=  1.000000  1.000000  1.000000  1.000000
 FoFCou: FMM=F IPFlag=           0 FMFlag=      100000 FMFlg1=           0
         NFxFlg=           0 DoJE=T BraDBF=F KetDBF=T FulRan=T
         wScrn=  0.000000 ICntrl=       500 IOpCl=  0 I1Cent=   200000004 NGrid=           0
         NMat0=    1 NMatS0=      1 NMatT0=    0 NMatD0=    1 NMtDS0=    0 NMtDT0=    0
 Petite list used in FoFCou.
 Requested convergence on RMS density matrix=1.00D-08 within 128 cycles.
 Requested convergence on MAX density matrix=1.00D-06.
 Requested convergence on             energy=1.00D-06.
 No special actions if energy rises.
 Integral accuracy reduced to 1.0D-05 until final iterations.
 Initial convergence to 1.0D-05 achieved.  Increase integral accuracy.
 SCF Done:  E(RB3LYP) =  -235.882015842     A.U. after   11 cycles
            NFock= 11  Conv=0.16D-08     -V/T= 2.0087

 **********************************************************************

            Population analysis using the SCF density.

 **********************************************************************

 Orbital symmetries:
       Occupied  (A) (A) (A) (A) (A) (A) (A) (A) (A) (A) (A) (A)
                 (A) (A) (A) (A) (A) (A) (A) (A) (A) (A) (A) (A)
       Virtual   (A) (A) (A) (A) (A) (A) (A) (A) (A) (A) (A) (A)
                 (A) (A) (A) (A) (A) (A) (A) (A) (A) (A) (A) (A)
                 (A) (A) (A) (A) (A) (A) (A) (A) (A) (A) (A) (A)
                 (A) (A) (A) (A) (A) (A) (A) (A) (A) (A) (A) (A)
                 (A) (A) (A) (A) (A) (A) (A) (A) (A) (A) (A) (A)
                 (A) (A) (A) (A) (A) (A) (A) (A) (A) (A) (A) (A)
                 (A) (A) (A) (A) (A) (A) (A) (A) (A) (A) (A) (A)
                 (A) (A) (A) (A) (A) (A) (A) (A) (A) (A) (A) (A)
                 (A) (A) (A) (A) (A) (A) (A) (A) (A) (A) (A) (A)
                 (A) (A) (A) (A) (A) (A) (A) (A) (A) (A) (A) (A)
 The electronic state is 1-A.
 Alpha  occ. eigenvalues --  -10.17868 -10.17861 -10.17860 -10.17842 -10.17841
 Alpha  occ. eigenvalues --  -10.17828  -0.83357  -0.73867  -0.73859  -0.59853
 Alpha  occ. eigenvalues --   -0.59845  -0.54062  -0.47613  -0.43344  -0.43281
 Alpha  occ. eigenvalues --   -0.43273  -0.37501  -0.37281  -0.37265  -0.33588
 Alpha  occ. eigenvalues --   -0.33577  -0.31202  -0.29311  -0.29291
 Alpha virt. eigenvalues --    0.05185   0.06666   0.09019   0.09023   0.13143
 Alpha virt. eigenvalues --    0.13145   0.13277   0.13431   0.14222   0.14230
 Alpha virt. eigenvalues --    0.15968   0.15968   0.22757   0.22766   0.23039
 Alpha virt. eigenvalues --    0.26544   0.26555   0.28563   0.40515   0.43223
 Alpha virt. eigenvalues --    0.43490   0.43496   0.43948   0.45350   0.45352
 Alpha virt. eigenvalues --    0.57864   0.57875   0.61416   0.61428   0.62670
 Alpha virt. eigenvalues --    0.62677   0.62742   0.62759   0.63785   0.63785
 Alpha virt. eigenvalues --    0.65019   0.67732   0.67734   0.67823   0.68234
 Alpha virt. eigenvalues --    0.69172   0.69174   0.69902   0.69931   0.70692
 Alpha virt. eigenvalues --    0.70923   0.89655   0.89683   0.94233   1.02675
 Alpha virt. eigenvalues --    1.02678   1.04403   1.14876   1.16963   1.21512
 Alpha virt. eigenvalues --    1.21522   1.24997   1.25050   1.34707   1.38647
 Alpha virt. eigenvalues --    1.38658   1.43478   1.43482   1.44306   1.57702
 Alpha virt. eigenvalues --    1.58395   1.60365   1.60388   1.60800   1.60844
 Alpha virt. eigenvalues --    1.60847   1.61840   1.61847   1.65991   1.66881
 Alpha virt. eigenvalues --    1.66913   1.68352   1.68358   1.71521   1.71861
 Alpha virt. eigenvalues --    1.71889   1.71974   1.75713   1.77115   1.77132
 Alpha virt. eigenvalues --    1.77485   1.83691   1.83719   1.91730   1.93603
 Alpha virt. eigenvalues --    1.95286   1.95302   1.99771   1.99789   2.01235
 Alpha virt. eigenvalues --    2.01240   2.12400   2.12402   2.19198   2.19487
 Alpha virt. eigenvalues --    2.19491   2.21098   2.23293   2.26132   2.26153
 Alpha virt. eigenvalues --    2.27588   2.32668   2.32670   2.37367   2.44996
 Alpha virt. eigenvalues --    2.50840   2.50849   2.51274   2.51326   2.59986
 Alpha virt. eigenvalues --    2.60018   2.66868   2.70863   2.70872   2.78785
          Condensed to atoms (all electrons):
               1          2          3          4          5          6
     1  C    4.582298   0.451481  -0.044699  -0.020137  -0.044801   0.451454
     2  C    0.451481   4.582562   0.451405  -0.044704  -0.020200  -0.044795
     3  C   -0.044699   0.451405   4.582374   0.451287  -0.044703  -0.020123
     4  C   -0.020137  -0.044704   0.451287   4.582497   0.451443  -0.044741
     5  C   -0.044801  -0.020200  -0.044703   0.451443   4.582517   0.451486
     6  C    0.451454  -0.044795  -0.020123  -0.044741   0.451486   4.582242
     7  H    0.007112  -0.017062   0.352622  -0.017126   0.007111   0.000549
     8  H   -0.030445   0.364838  -0.030462  -0.006659  -0.002989  -0.006642
     9  H   -0.017137   0.352580  -0.017175   0.007116   0.000552   0.007121
    10  H    0.364821  -0.030416  -0.006677  -0.002962  -0.006661  -0.030381
    11  H    0.352631  -0.017087   0.007119   0.000543   0.007126  -0.017130
    12  H   -0.002973  -0.006672  -0.030400   0.364862  -0.030397  -0.006666
    13  H    0.000549   0.007111  -0.017142   0.352611  -0.017066   0.007116
    14  H    0.007122   0.000551   0.007119  -0.017164   0.352590  -0.017149
    15  H   -0.006642  -0.002987  -0.006660  -0.030463   0.364820  -0.030430
    16  H   -0.030384  -0.006666  -0.002954  -0.006674  -0.030396   0.364833
    17  H   -0.017121   0.007127   0.000540   0.007123  -0.017080   0.352621
    18  H   -0.006677  -0.030384   0.364868  -0.030381  -0.006675  -0.002971
               7          8          9         10         11         12
     1  C    0.007112  -0.030445  -0.017137   0.364821   0.352631  -0.002973
     2  C   -0.017062   0.364838   0.352580  -0.030416  -0.017087  -0.006672
     3  C    0.352622  -0.030462  -0.017175  -0.006677   0.007119  -0.030400
     4  C   -0.017126  -0.006659   0.007116  -0.002962   0.000543   0.364862
     5  C    0.007111  -0.002989   0.000552  -0.006661   0.007126  -0.030397
     6  C    0.000549  -0.006642   0.007121  -0.030381  -0.017130  -0.006666
     7  H    0.740709  -0.008968  -0.005121  -0.000012  -0.000487  -0.008951
     8  H   -0.008968   0.735233  -0.039856   0.010339  -0.008987   0.006311
     9  H   -0.005121  -0.039856   0.740883  -0.008981  -0.005114  -0.000008
    10  H   -0.000012   0.010339  -0.008981   0.735260  -0.039895   0.000207
    11  H   -0.000487  -0.008987  -0.005114  -0.039895   0.740737   0.000009
    12  H   -0.008951   0.006311  -0.000008   0.000207   0.000009   0.735115
    13  H   -0.005083  -0.000008  -0.000491   0.000011   0.000074  -0.039898
    14  H   -0.000490   0.000010   0.000074  -0.000013  -0.000490  -0.008948
    15  H   -0.000009   0.000208   0.000010   0.006293  -0.000014   0.010334
    16  H    0.000011   0.006292  -0.000013   0.010338  -0.009029   0.006289
    17  H    0.000074  -0.000014  -0.000489  -0.009034  -0.005051  -0.000014
    18  H   -0.039913   0.010331  -0.008937   0.006297  -0.000012   0.010319
              13         14         15         16         17         18
     1  C    0.000549   0.007122  -0.006642  -0.030384  -0.017121  -0.006677
     2  C    0.007111   0.000551  -0.002987  -0.006666   0.007127  -0.030384
     3  C   -0.017142   0.007119  -0.006660  -0.002954   0.000540   0.364868
     4  C    0.352611  -0.017164  -0.030463  -0.006674   0.007123  -0.030381
     5  C   -0.017066   0.352590   0.364820  -0.030396  -0.017080  -0.006675
     6  C    0.007116  -0.017149  -0.030430   0.364833   0.352621  -0.002971
     7  H   -0.005083  -0.000490  -0.000009   0.000011   0.000074  -0.039913
     8  H   -0.000008   0.000010   0.000208   0.006292  -0.000014   0.010331
     9  H   -0.000491   0.000074   0.000010  -0.000013  -0.000489  -0.008937
    10  H    0.000011  -0.000013   0.006293   0.010338  -0.009034   0.006297
    11  H    0.000074  -0.000490  -0.000014  -0.009029  -0.005051  -0.000012
    12  H   -0.039898  -0.008948   0.010334   0.006289  -0.000014   0.010319
    13  H    0.740737  -0.005126  -0.008979  -0.000014  -0.000487  -0.008946
    14  H   -0.005126   0.740878  -0.039857  -0.008993  -0.005095  -0.000009
    15  H   -0.008979  -0.039857   0.735268   0.010338  -0.009013   0.006308
    16  H   -0.000014  -0.008993   0.010338   0.735238  -0.039898   0.000206
    17  H   -0.000487  -0.005095  -0.009013  -0.039898   0.740714   0.000009
    18  H   -0.008946  -0.000009   0.006308   0.000206   0.000009   0.735095
 Mulliken charges:
               1
     1  C    0.003548
     2  C    0.003317
     3  C    0.003660
     4  C    0.003528
     5  C    0.003323
     6  C    0.003604
     7  H   -0.004965
     8  H    0.001469
     9  H   -0.005015
    10  H    0.001468
    11  H   -0.004943
    12  H    0.001480
    13  H   -0.004968
    14  H   -0.005011
    15  H    0.001475
    16  H    0.001475
    17  H   -0.004914
    18  H    0.001470
 Sum of Mulliken charges =   0.00000
 Mulliken charges with hydrogens summed into heavy atoms:
               1
     1  C    0.000073
     2  C   -0.000228
     3  C    0.000165
     4  C    0.000040
     5  C   -0.000213
     6  C    0.000165
 Electronic spatial extent (au):  <R**2>=            587.3172
 Charge=              0.0000 electrons
 Dipole moment (field-independent basis, Debye):
    X=             -0.0001    Y=              0.0000    Z=             -0.0001  Tot=              0.0001
 Quadrupole moment (field-independent basis, Debye-Ang):
   XX=            -40.9551   YY=            -40.9628   ZZ=            -39.9520
   XY=              0.0005   XZ=             -0.0001   YZ=              0.0001
 Traceless Quadrupole moment (field-independent basis, Debye-Ang):
   XX=             -0.3318   YY=             -0.3395   ZZ=              0.6713
   XY=              0.0005   XZ=             -0.0001   YZ=              0.0001
 Octapole moment (field-independent basis, Debye-Ang**2):
  XXX=              0.0027  YYY=              0.0007  ZZZ=              0.0003  XYY=              0.0022
  XXY=             -0.0015  XXZ=             -0.0004  XZZ=             -0.0028  YZZ=              0.0004
  YYZ=             -0.0002  XYZ=              0.0008
 Hexadecapole moment (field-independent basis, Debye-Ang**3):
 XXXX=           -361.7069 YYYY=           -361.4077 ZZZZ=           -104.1970 XXXY=             -0.0016
 XXXZ=              0.7000 YYYX=              0.0065 YYYZ=              2.7203 ZZZX=             -0.0021
 ZZZY=              0.0041 XXYY=           -120.5120 XXZZ=            -78.5711 YYZZ=            -78.5262
 XXYZ=             -2.7257 YYXZ=             -0.6988 ZZXY=             -0.0002
 N-N= 2.566415383568D+02 E-N=-1.058152293225D+03  KE= 2.338372753484D+02
 Calling FoFJK, ICntrl=      2127 FMM=F ISym2X=0 I1Cent= 0 IOpClX= 0 NMat=1 NMatS=1 NMatT=0.
 ***** Axes restored to original set *****
 -------------------------------------------------------------------
 Center     Atomic                   Forces (Hartrees/Bohr)
 Number     Number              X              Y              Z
 -------------------------------------------------------------------
      1        6          -0.010990871   -0.015062167   -0.009240176
      2        6           0.011161724   -0.016266395   -0.007289693
      3        6           0.017876165    0.004800338   -0.008894830
      4        6           0.011037291    0.014960477    0.008988594
      5        6          -0.011106918    0.016331413    0.007245575
      6        6          -0.018045038   -0.004776610    0.009163957
      7        1          -0.009776697    0.001818943   -0.003501890
      8        1          -0.002371281    0.003491010   -0.008075821
      9        1          -0.001858664    0.002703528    0.010066936
     10        1           0.002395579   -0.004628683    0.007479127
     11        1           0.001866768    0.009786009   -0.003520056
     12        1          -0.002386112    0.004646238   -0.007480970
     13        1          -0.001863284   -0.009787638    0.003499444
     14        1           0.001834465   -0.002701323   -0.010050011
     15        1           0.002386147   -0.003503971    0.008091542
     16        1          -0.003415687    0.003930077   -0.007479722
     17        1           0.009815067   -0.001842206    0.003547891
     18        1           0.003441345   -0.003899039    0.007450101
 -------------------------------------------------------------------
 Cartesian Forces:  Max     0.018045038 RMS     0.008352582

 GradGradGradGradGradGradGradGradGradGradGradGradGradGradGradGradGradGrad
 Berny optimization.
 FormGI is forming the generalized inverse of G from B-inverse, IUseBI=4.
 Internal  Forces:  Max     0.012789566 RMS     0.004428237
 Search for a local minimum.
 Step number   1 out of a maximum of  108
 All quantities printed in internal units (Hartrees-Bohrs-Radians)
 Mixed Optimization -- RFO/linear search
 Second derivative matrix not updated -- first step.
 ITU=  0
     Eigenvalues ---    0.00748   0.00749   0.00841   0.02108   0.02111
     Eigenvalues ---    0.03845   0.04154   0.04159   0.04456   0.04956
     Eigenvalues ---    0.04958   0.05033   0.05655   0.05658   0.06098
     Eigenvalues ---    0.06157   0.08149   0.08160   0.08177   0.08181
     Eigenvalues ---    0.08187   0.08190   0.08197   0.08200   0.12069
     Eigenvalues ---    0.12098   0.12106   0.16075   0.16086   0.21913
     Eigenvalues ---    0.29134   0.29311   0.29312   0.30833   0.30841
     Eigenvalues ---    0.30842   0.31380   0.31384   0.31385   0.31386
     Eigenvalues ---    0.31386   0.31394   0.31463   0.31465   0.31467
     Eigenvalues ---    0.31470   0.31472   0.31476
 RFO step:  Lambda=-7.69006427D-03 EMin= 7.48208380D-03
 Linear search not attempted -- first point.
 Iteration  1 RMS(Cart)=  0.02206984 RMS(Int)=  0.00026522
 Iteration  2 RMS(Cart)=  0.00019513 RMS(Int)=  0.00010141
 Iteration  3 RMS(Cart)=  0.00000004 RMS(Int)=  0.00010141
 Variable       Old X    -DE/DX   Delta X   Delta X   Delta X     New X
                                 (Linear)    (Quad)   (Total)
    R1        2.86314   0.01264   0.00000   0.03997   0.03997   2.90311
    R2        2.86291   0.01279   0.00000   0.04042   0.04042   2.90333
    R3        2.11985  -0.00902   0.00000  -0.02805  -0.02805   2.09180
    R4        2.11825  -0.01003   0.00000  -0.03111  -0.03111   2.08714
    R5        2.86327   0.01260   0.00000   0.03990   0.03989   2.90317
    R6        2.11983  -0.00901   0.00000  -0.02803  -0.02803   2.09181
    R7        2.11838  -0.01005   0.00000  -0.03117  -0.03117   2.08720
    R8        2.86376   0.01253   0.00000   0.03969   0.03969   2.90344
    R9        2.11814  -0.01001   0.00000  -0.03104  -0.03104   2.08710
   R10        2.11967  -0.00899   0.00000  -0.02795  -0.02795   2.09172
   R11        2.86317   0.01262   0.00000   0.03994   0.03994   2.90311
   R12        2.11982  -0.00903   0.00000  -0.02807  -0.02807   2.09175
   R13        2.11821  -0.01002   0.00000  -0.03109  -0.03109   2.08713
   R14        2.86307   0.01268   0.00000   0.04008   0.04008   2.90315
   R15        2.11830  -0.01003   0.00000  -0.03110  -0.03110   2.08720
   R16        2.11992  -0.00903   0.00000  -0.02810  -0.02810   2.09182
   R17        2.11982  -0.00902   0.00000  -0.02805  -0.02805   2.09177
   R18        2.11834  -0.01006   0.00000  -0.03120  -0.03120   2.08715
    A1        1.94271   0.00046   0.00000   0.00901   0.00888   1.95159
    A2        1.90946  -0.00027   0.00000  -0.00689  -0.00684   1.90262
    A3        1.91248   0.00060   0.00000   0.01247   0.01223   1.92471
    A4        1.90952  -0.00034   0.00000  -0.00699  -0.00694   1.90258
    A5        1.91244   0.00069   0.00000   0.01283   0.01258   1.92503
    A6        1.87599  -0.00122   0.00000  -0.02158  -0.02149   1.85450
    A7        1.94364   0.00034   0.00000   0.00805   0.00790   1.95154
    A8        1.90933  -0.00028   0.00000  -0.00684  -0.00679   1.90254
    A9        1.91217   0.00070   0.00000   0.01301   0.01277   1.92494
   A10        1.90923  -0.00030   0.00000  -0.00692  -0.00686   1.90237
   A11        1.91225   0.00073   0.00000   0.01318   0.01295   1.92520
   A12        1.87595  -0.00124   0.00000  -0.02161  -0.02152   1.85443
   A13        1.94153   0.00058   0.00000   0.00982   0.00967   1.95120
   A14        1.91271   0.00058   0.00000   0.01239   0.01214   1.92485
   A15        1.90983  -0.00032   0.00000  -0.00720  -0.00715   1.90268
   A16        1.91264   0.00066   0.00000   0.01280   0.01254   1.92518
   A17        1.90967  -0.00037   0.00000  -0.00731  -0.00726   1.90241
   A18        1.87630  -0.00120   0.00000  -0.02164  -0.02156   1.85474
   A19        1.94195   0.00053   0.00000   0.00944   0.00929   1.95125
   A20        1.90958  -0.00036   0.00000  -0.00728  -0.00722   1.90236
   A21        1.91265   0.00067   0.00000   0.01281   0.01255   1.92520
   A22        1.90980  -0.00030   0.00000  -0.00712  -0.00708   1.90272
   A23        1.91244   0.00061   0.00000   0.01266   0.01241   1.92484
   A24        1.87623  -0.00121   0.00000  -0.02165  -0.02156   1.85467
   A25        1.94385   0.00032   0.00000   0.00796   0.00781   1.95166
   A26        1.91216   0.00071   0.00000   0.01307   0.01284   1.92500
   A27        1.90917  -0.00028   0.00000  -0.00681  -0.00676   1.90240
   A28        1.91227   0.00072   0.00000   0.01304   0.01280   1.92507
   A29        1.90924  -0.00029   0.00000  -0.00681  -0.00676   1.90248
   A30        1.87588  -0.00125   0.00000  -0.02158  -0.02150   1.85439
   A31        1.94248   0.00049   0.00000   0.00927   0.00914   1.95162
   A32        1.90958  -0.00033   0.00000  -0.00702  -0.00697   1.90261
   A33        1.91233   0.00068   0.00000   0.01288   0.01263   1.92497
   A34        1.90974  -0.00029   0.00000  -0.00709  -0.00705   1.90269
   A35        1.91241   0.00060   0.00000   0.01245   0.01220   1.92460
   A36        1.87608  -0.00121   0.00000  -0.02163  -0.02154   1.85454
    D1       -0.96330   0.00132   0.00000   0.02516   0.02525  -0.93805
    D2        1.14929   0.00097   0.00000   0.01713   0.01718   1.16647
    D3       -3.08159  -0.00029   0.00000  -0.00546  -0.00546  -3.08705
    D4        1.14914   0.00101   0.00000   0.01763   0.01768   1.16683
    D5       -3.02145   0.00066   0.00000   0.00960   0.00961  -3.01184
    D6       -0.96914  -0.00060   0.00000  -0.01299  -0.01303  -0.98218
    D7       -3.08143  -0.00027   0.00000  -0.00526  -0.00527  -3.08670
    D8       -0.96884  -0.00061   0.00000  -0.01329  -0.01334  -0.98218
    D9        1.08347  -0.00188   0.00000  -0.03588  -0.03599   1.04748
   D10        0.96137  -0.00118   0.00000  -0.02387  -0.02397   0.93740
   D11       -1.15128  -0.00092   0.00000  -0.01629  -0.01635  -1.16763
   D12        3.07920   0.00035   0.00000   0.00650   0.00651   3.08571
   D13       -1.15104  -0.00092   0.00000  -0.01640  -0.01646  -1.16750
   D14        3.01950  -0.00065   0.00000  -0.00882  -0.00884   3.01066
   D15        0.96679   0.00061   0.00000   0.01397   0.01402   0.98082
   D16        3.07952   0.00035   0.00000   0.00635   0.00635   3.08587
   D17        0.96688   0.00061   0.00000   0.01393   0.01397   0.98085
   D18       -1.08583   0.00188   0.00000   0.03672   0.03683  -1.04899
   D19        0.96442  -0.00130   0.00000  -0.02553  -0.02562   0.93880
   D20        3.08217   0.00029   0.00000   0.00529   0.00530   3.08747
   D21       -1.14768  -0.00100   0.00000  -0.01792  -0.01797  -1.16565
   D22       -1.14823  -0.00097   0.00000  -0.01754  -0.01760  -1.16583
   D23        0.96952   0.00063   0.00000   0.01328   0.01333   0.98285
   D24        3.02285  -0.00067   0.00000  -0.00993  -0.00994   3.01291
   D25        3.08266   0.00029   0.00000   0.00499   0.00499   3.08766
   D26       -1.08277   0.00188   0.00000   0.03581   0.03592  -1.04685
   D27        0.97056   0.00059   0.00000   0.01260   0.01265   0.98321
   D28       -0.96406   0.00122   0.00000   0.02504   0.02515  -0.93891
   D29        1.14832   0.00094   0.00000   0.01737   0.01743   1.16574
   D30       -3.08180  -0.00034   0.00000  -0.00564  -0.00565  -3.08745
   D31       -3.08185  -0.00033   0.00000  -0.00554  -0.00555  -3.08740
   D32       -0.96948  -0.00061   0.00000  -0.01321  -0.01327  -0.98274
   D33        1.08359  -0.00189   0.00000  -0.03622  -0.03634   1.04725
   D34        1.14814   0.00095   0.00000   0.01749   0.01755   1.16569
   D35       -3.02267   0.00067   0.00000   0.00982   0.00983  -3.01284
   D36       -0.96960  -0.00061   0.00000  -0.01319  -0.01324  -0.98284
   D37        0.96409  -0.00132   0.00000  -0.02553  -0.02562   0.93847
   D38        3.08253   0.00028   0.00000   0.00490   0.00491   3.08744
   D39       -1.14854  -0.00098   0.00000  -0.01759  -0.01765  -1.16618
   D40       -1.14816  -0.00100   0.00000  -0.01777  -0.01782  -1.16598
   D41        0.97028   0.00059   0.00000   0.01266   0.01271   0.98299
   D42        3.02240  -0.00067   0.00000  -0.00983  -0.00984   3.01255
   D43        3.08195   0.00028   0.00000   0.00524   0.00525   3.08721
   D44       -1.08279   0.00187   0.00000   0.03567   0.03578  -1.04701
   D45        0.96933   0.00062   0.00000   0.01318   0.01323   0.98255
   D46       -0.96260   0.00129   0.00000   0.02480   0.02488  -0.93771
   D47        1.14995   0.00100   0.00000   0.01726   0.01731   1.16726
   D48       -3.08039  -0.00029   0.00000  -0.00583  -0.00584  -3.08623
   D49       -3.08097  -0.00030   0.00000  -0.00566  -0.00566  -3.08664
   D50       -0.96842  -0.00059   0.00000  -0.01320  -0.01324  -0.98167
   D51        1.08442  -0.00189   0.00000  -0.03629  -0.03639   1.04802
   D52        1.14999   0.00095   0.00000   0.01686   0.01691   1.16690
   D53       -3.02065   0.00066   0.00000   0.00932   0.00933  -3.01131
   D54       -0.96781  -0.00063   0.00000  -0.01377  -0.01382  -0.98163
         Item               Value     Threshold  Converged?
 Maximum Force            0.012790     0.000450     NO 
 RMS     Force            0.004428     0.000300     NO 
 Maximum Displacement     0.064044     0.001800     NO 
 RMS     Displacement     0.022044     0.001200     NO 
 Predicted change in Energy=-4.024687D-03
 GradGradGradGradGradGradGradGradGradGradGradGradGradGradGradGradGradGrad

                          Input orientation:                          
 ---------------------------------------------------------------------
 Center     Atomic      Atomic             Coordinates (Angstroms)
 Number     Number       Type             X           Y           Z
 ---------------------------------------------------------------------
      1          6           0       -1.674355   -0.967950    0.683286
      2          6           0       -0.138165   -0.961883    0.670249
      3          6           0        0.427235    0.466517    0.683974
      4          6           0       -0.136585    1.292043    1.850699
      5          6           0       -1.672780    1.286410    1.863566
      6          6           0       -2.238757   -0.141743    1.849169
      7          1           0        1.530421    0.441234    0.730274
      8          1           0        0.232080   -1.504553    1.561169
      9          1           0        0.239617   -1.515226   -0.207824
     10          1           0       -2.044736   -0.545545   -0.270491
     11          1           0       -2.052663   -2.004561    0.729898
     12          1           0        0.233668    0.868340    2.803920
     13          1           0        0.242161    2.328529    1.805096
     14          1           0       -2.050559    1.839439    2.741836
     15          1           0       -2.042629    1.829716    0.972860
     16          1           0       -1.981509   -0.641283    2.802873
     17          1           0       -3.341890   -0.115731    1.801478
     18          1           0        0.168241    0.966082   -0.269214
 ---------------------------------------------------------------------
                    Distance matrix (angstroms):
                    1          2          3          4          5
     1  C    0.000000
     2  C    1.536257   0.000000
     3  C    2.544479   1.536291   0.000000
     4  C    2.972399   2.544336   1.536436   0.000000
     5  C    2.544642   2.972182   2.544351   1.536260   0.000000
     6  C    1.536377   2.544596   2.972402   2.544577   1.536280
     7  H    3.501228   2.180944   1.104447   2.181316   3.501310
     8  H    2.166360   1.106938   2.166257   2.835611   3.392552
     9  H    2.181026   1.104499   2.181239   3.501400   3.974554
    10  H    1.106931   2.166412   2.836531   3.393703   2.837007
    11  H    1.104469   2.180835   3.501175   3.974311   3.501428
    12  H    3.392580   2.835582   2.166356   1.106905   2.166470
    13  H    3.974703   3.501333   2.181343   1.104460   2.180924
    14  H    3.501513   3.974434   3.501310   2.181069   1.104498
    15  H    2.836620   3.392872   2.835841   2.166264   1.106944
    16  H    2.166496   2.837039   3.393965   2.836922   2.166474
    17  H    2.181125   3.501358   3.974183   3.501176   2.180775
    18  H    2.836000   2.166454   1.106892   2.166380   2.835616
                    6          7          8          9         10
     6  C    0.000000
     7  H    3.974732   0.000000
     8  H    2.836412   2.482370   0.000000
     9  H    3.501430   2.524665   1.769041   0.000000
    10  H    2.166485   3.841485   3.075478   2.482433   0.000000
    11  H    2.181167   4.338249   2.482151   2.524544   1.769058
    12  H    2.836318   2.482740   2.678629   3.840836   4.079485
    13  H    3.501305   2.525221   3.840848   4.338928   4.218798
    14  H    2.181136   4.338753   4.217428   5.019878   3.842173
    15  H    2.166340   3.841018   4.078940   4.217973   2.681006
    16  H    1.106918   4.219143   2.680866   3.842066   3.075504
    17  H    1.104470   5.019672   3.841853   4.338556   2.482016
    18  H    3.392413   1.769174   3.075454   2.483093   2.679979
                   11         12         13         14         15
    11  H    0.000000
    12  H    4.216923   0.000000
    13  H    5.019755   1.769144   0.000000
    14  H    4.338691   2.482857   2.524530   0.000000
    15  H    3.841980   3.075475   2.482276   1.769020   0.000000
    16  H    2.482099   2.680666   3.841881   2.482433   3.075470
    17  H    2.525483   3.841601   4.338184   2.524778   2.481824
    18  H    3.841271   3.075384   2.482838   3.840865   2.678910
                   16         17         18
    16  H    0.000000
    17  H    1.769077   0.000000
    18  H    4.079555   4.216528   0.000000
 Stoichiometry    C6H12
 Framework group  C1[X(C6H12)]
 Deg. of freedom    48
 Full point group                 C1      NOp   1
 Largest Abelian subgroup         C1      NOp   1
 Largest concise Abelian subgroup C1      NOp   1
                         Standard orientation:                         
 ---------------------------------------------------------------------
 Center     Atomic      Atomic             Coordinates (Angstroms)
 Number     Number       Type             X           Y           Z
 ---------------------------------------------------------------------
      1          6           0       -1.311349    0.662391   -0.224538
      2          6           0       -1.229183   -0.804375    0.224832
      3          6           0        0.081915   -1.466738   -0.225154
      4          6           0        1.311194   -0.662485    0.225053
      5          6           0        1.229339    0.804197   -0.224655
      6          6           0       -0.081871    1.466890    0.224481
      7          1           0        0.139424   -2.501114    0.157680
      8          1           0       -1.294140   -0.847330    1.329027
      9          1           0       -2.096209   -1.371437   -0.158085
     10          1           0       -1.381886    0.697862   -1.328650
     11          1           0       -2.235752    1.129167    0.159454
     12          1           0        1.380317   -0.697880    1.329231
     13          1           0        2.235962   -1.129371   -0.157900
     14          1           0        2.096174    1.371341    0.158569
     15          1           0        1.294981    0.846780   -1.328830
     16          1           0       -0.086276    1.546017    1.328558
     17          1           0       -0.139351    2.500743   -0.159835
     18          1           0        0.086481   -1.544054   -1.329333
 ---------------------------------------------------------------------
 Rotational constants (GHZ):           4.2694529           4.2693641           2.4319840
 Standard basis: CC-pVDZ (5D, 7F)
 There are   150 symmetry adapted cartesian basis functions of A   symmetry.
 There are   144 symmetry adapted basis functions of A   symmetry.
   144 basis functions,   282 primitive gaussians,   150 cartesian basis functions
    24 alpha electrons       24 beta electrons
       nuclear repulsion energy       254.4571998485 Hartrees.
 NAtoms=   18 NActive=   18 NUniq=   18 SFac= 1.00D+00 NAtFMM=   60 NAOKFM=F Big=F
 Integral buffers will be    131072 words long.
 Raffenetti 2 integral format.
 Two-electron integral symmetry is turned on.
 One-electron integrals computed using PRISM.
 NBasis=   144 RedAO= T EigKep=  4.24D-03  NBF=   144
 NBsUse=   144 1.00D-06 EigRej= -1.00D+00 NBFU=   144
 Initial guess from the checkpoint file:  "C6H12_opt.chk"
 B after Tr=     0.000000    0.000000    0.000000
         Rot=    0.858949   -0.000073    0.000018    0.512061 Ang= -61.60 deg.
 ExpMin= 1.22D-01 ExpMax= 6.67D+03 ExpMxC= 2.28D+02 IAcc=2 IRadAn=         4 AccDes= 0.00D+00
 Harris functional with IExCor=  402 and IRadAn=       4 diagonalized for initial guess.
 HarFok:  IExCor=  402 AccDes= 0.00D+00 IRadAn=         4 IDoV= 1 UseB2=F ITyADJ=14
 ICtDFT=  3500011 ScaDFX=  1.000000  1.000000  1.000000  1.000000
 FoFCou: FMM=F IPFlag=           0 FMFlag=      100000 FMFlg1=           0
         NFxFlg=           0 DoJE=T BraDBF=F KetDBF=T FulRan=T
         wScrn=  0.000000 ICntrl=       500 IOpCl=  0 I1Cent=   200000004 NGrid=           0
         NMat0=    1 NMatS0=      1 NMatT0=    0 NMatD0=    1 NMtDS0=    0 NMtDT0=    0
 Petite list used in FoFCou.
 Requested convergence on RMS density matrix=1.00D-08 within 128 cycles.
 Requested convergence on MAX density matrix=1.00D-06.
 Requested convergence on             energy=1.00D-06.
 No special actions if energy rises.
 Integral accuracy reduced to 1.0D-05 until final iterations.
 Initial convergence to 1.0D-05 achieved.  Increase integral accuracy.
 SCF Done:  E(RB3LYP) =  -235.885769907     A.U. after    9 cycles
            NFock=  9  Conv=0.22D-08     -V/T= 2.0088
 Calling FoFJK, ICntrl=      2127 FMM=F ISym2X=0 I1Cent= 0 IOpClX= 0 NMat=1 NMatS=1 NMatT=0.
 ***** Axes restored to original set *****
 -------------------------------------------------------------------
 Center     Atomic                   Forces (Hartrees/Bohr)
 Number     Number              X              Y              Z
 -------------------------------------------------------------------
      1        6          -0.000408920    0.000499393   -0.000990197
      2        6           0.000396763   -0.000536175    0.001003113
      3        6          -0.000376612    0.000544054   -0.000950139
      4        6           0.000415062   -0.000544354    0.000942935
      5        6          -0.000378851    0.000562186   -0.001006132
      6        6           0.000322974   -0.000533839    0.000995181
      7        1          -0.000672618    0.000000776    0.000046179
      8        1           0.000009292   -0.000022204    0.000083992
      9        1          -0.000272115    0.000416335    0.000497151
     10        1          -0.000001944    0.000070630   -0.000060077
     11        1           0.000242685    0.000635391    0.000046527
     12        1           0.000008246   -0.000053281    0.000085028
     13        1          -0.000248733   -0.000632884   -0.000050899
     14        1           0.000270282   -0.000414534   -0.000496906
     15        1          -0.000009794    0.000014653   -0.000083307
     16        1           0.000063886   -0.000032450    0.000065073
     17        1           0.000678783   -0.000009697   -0.000036751
     18        1          -0.000038386    0.000035999   -0.000090770
 -------------------------------------------------------------------
 Cartesian Forces:  Max     0.001006132 RMS     0.000457145

 GradGradGradGradGradGradGradGradGradGradGradGradGradGradGradGradGradGrad
 Berny optimization.
 Using GEDIIS/GDIIS optimizer.
 FormGI is forming the generalized inverse of G from B-inverse, IUseBI=4.
 Internal  Forces:  Max     0.000696704 RMS     0.000244256
 Search for a local minimum.
 Step number   2 out of a maximum of  108
 All quantities printed in internal units (Hartrees-Bohrs-Radians)
 Mixed Optimization -- En-DIIS/RFO-DIIS
 Update second derivatives using D2CorX and points    1    2
 DE= -3.75D-03 DEPred=-4.02D-03 R= 9.33D-01
 TightC=F SS=  1.41D+00  RLast= 2.10D-01 DXNew= 5.0454D-01 6.3039D-01
 Trust test= 9.33D-01 RLast= 2.10D-01 DXMaxT set to 5.05D-01
 ITU=  1  0
 Use linear search instead of GDIIS.
     Eigenvalues ---    0.00740   0.00740   0.00826   0.02067   0.02068
     Eigenvalues ---    0.03742   0.03994   0.03995   0.04690   0.04956
     Eigenvalues ---    0.04957   0.04995   0.05640   0.05640   0.06019
     Eigenvalues ---    0.06280   0.08197   0.08199   0.08311   0.08315
     Eigenvalues ---    0.08316   0.08323   0.08374   0.08376   0.12169
     Eigenvalues ---    0.12198   0.12199   0.16233   0.16234   0.21876
     Eigenvalues ---    0.29269   0.29337   0.29342   0.29998   0.30837
     Eigenvalues ---    0.30842   0.31207   0.31381   0.31385   0.31385
     Eigenvalues ---    0.31386   0.31392   0.31464   0.31466   0.31468
     Eigenvalues ---    0.31471   0.31474   0.32026
 RFO step:  Lambda=-8.45183549D-05 EMin= 7.39598122D-03
 Quartic linear search produced a step of -0.02023.
 Iteration  1 RMS(Cart)=  0.00580995 RMS(Int)=  0.00002098
 Iteration  2 RMS(Cart)=  0.00002243 RMS(Int)=  0.00001201
 Iteration  3 RMS(Cart)=  0.00000000 RMS(Int)=  0.00001201
 Variable       Old X    -DE/DX   Delta X   Delta X   Delta X     New X
                                 (Linear)    (Quad)   (Total)
    R1        2.90311  -0.00039  -0.00081   0.00013  -0.00068   2.90243
    R2        2.90333  -0.00047  -0.00082  -0.00012  -0.00094   2.90239
    R3        2.09180   0.00008   0.00057  -0.00072  -0.00016   2.09164
    R4        2.08714  -0.00068   0.00063  -0.00319  -0.00256   2.08459
    R5        2.90317  -0.00043  -0.00081   0.00002  -0.00078   2.90239
    R6        2.09181   0.00008   0.00057  -0.00072  -0.00015   2.09166
    R7        2.08720  -0.00070   0.00063  -0.00325  -0.00262   2.08458
    R8        2.90344  -0.00051  -0.00080  -0.00021  -0.00102   2.90243
    R9        2.08710  -0.00067   0.00063  -0.00316  -0.00253   2.08457
   R10        2.09172   0.00010   0.00057  -0.00065  -0.00008   2.09164
   R11        2.90311  -0.00040  -0.00081   0.00012  -0.00069   2.90242
   R12        2.09175   0.00010   0.00057  -0.00067  -0.00010   2.09165
   R13        2.08713  -0.00068   0.00063  -0.00319  -0.00256   2.08457
   R14        2.90315  -0.00041  -0.00081   0.00006  -0.00076   2.90239
   R15        2.08720  -0.00069   0.00063  -0.00324  -0.00261   2.08459
   R16        2.09182   0.00008   0.00057  -0.00073  -0.00017   2.09166
   R17        2.09177   0.00009   0.00057  -0.00071  -0.00014   2.09163
   R18        2.08715  -0.00068   0.00063  -0.00319  -0.00256   2.08459
    A1        1.95159  -0.00015  -0.00018  -0.00442  -0.00464   1.94695
    A2        1.90262   0.00016   0.00014   0.00243   0.00258   1.90520
    A3        1.92471  -0.00006  -0.00025  -0.00020  -0.00044   1.92427
    A4        1.90258   0.00016   0.00014   0.00245   0.00260   1.90518
    A5        1.92503  -0.00009  -0.00025  -0.00051  -0.00076   1.92427
    A6        1.85450   0.00001   0.00043   0.00061   0.00103   1.85553
    A7        1.95154  -0.00012  -0.00016  -0.00429  -0.00449   1.94704
    A8        1.90254   0.00015   0.00014   0.00250   0.00265   1.90520
    A9        1.92494  -0.00008  -0.00026  -0.00045  -0.00070   1.92425
   A10        1.90237   0.00016   0.00014   0.00260   0.00275   1.90512
   A11        1.92520  -0.00010  -0.00026  -0.00062  -0.00087   1.92432
   A12        1.85443   0.00001   0.00044   0.00061   0.00104   1.85547
   A13        1.95120  -0.00015  -0.00020  -0.00421  -0.00445   1.94675
   A14        1.92485  -0.00007  -0.00025  -0.00030  -0.00053   1.92431
   A15        1.90268   0.00016   0.00014   0.00244   0.00260   1.90528
   A16        1.92518  -0.00010  -0.00025  -0.00060  -0.00084   1.92434
   A17        1.90241   0.00017   0.00015   0.00257   0.00273   1.90514
   A18        1.85474   0.00000   0.00044   0.00042   0.00085   1.85560
   A19        1.95125  -0.00014  -0.00019  -0.00423  -0.00445   1.94679
   A20        1.90236   0.00017   0.00015   0.00258   0.00274   1.90510
   A21        1.92520  -0.00010  -0.00025  -0.00059  -0.00083   1.92438
   A22        1.90272   0.00015   0.00014   0.00235   0.00251   1.90523
   A23        1.92484  -0.00007  -0.00025  -0.00028  -0.00052   1.92433
   A24        1.85467   0.00000   0.00044   0.00049   0.00092   1.85559
   A25        1.95166  -0.00013  -0.00016  -0.00437  -0.00457   1.94709
   A26        1.92500  -0.00009  -0.00026  -0.00046  -0.00071   1.92429
   A27        1.90240   0.00016   0.00014   0.00258   0.00273   1.90514
   A28        1.92507  -0.00010  -0.00026  -0.00059  -0.00084   1.92423
   A29        1.90248   0.00016   0.00014   0.00256   0.00271   1.90519
   A30        1.85439   0.00001   0.00043   0.00064   0.00107   1.85545
   A31        1.95162  -0.00016  -0.00018  -0.00445  -0.00467   1.94695
   A32        1.90261   0.00016   0.00014   0.00245   0.00260   1.90521
   A33        1.92497  -0.00009  -0.00026  -0.00049  -0.00073   1.92423
   A34        1.90269   0.00016   0.00014   0.00245   0.00261   1.90530
   A35        1.92460  -0.00006  -0.00025  -0.00017  -0.00040   1.92420
   A36        1.85454   0.00000   0.00044   0.00055   0.00098   1.85552
    D1       -0.93805  -0.00042  -0.00051  -0.01272  -0.01322  -0.95127
    D2        1.16647  -0.00020  -0.00035  -0.01053  -0.01087   1.15560
    D3       -3.08705  -0.00014   0.00011  -0.00858  -0.00847  -3.09552
    D4        1.16683  -0.00021  -0.00036  -0.01085  -0.01120   1.15562
    D5       -3.01184   0.00001  -0.00019  -0.00865  -0.00885  -3.02069
    D6       -0.98218   0.00007   0.00026  -0.00671  -0.00644  -0.98862
    D7       -3.08670  -0.00015   0.00011  -0.00881  -0.00870  -3.09540
    D8       -0.98218   0.00008   0.00027  -0.00662  -0.00635  -0.98853
    D9        1.04748   0.00013   0.00073  -0.00467  -0.00394   1.04354
   D10        0.93740   0.00041   0.00049   0.01303   0.01350   0.95090
   D11       -1.16763   0.00020   0.00033   0.01115   0.01148  -1.15614
   D12        3.08571   0.00015  -0.00013   0.00934   0.00920   3.09491
   D13       -1.16750   0.00020   0.00033   0.01116   0.01149  -1.15601
   D14        3.01066  -0.00001   0.00018   0.00928   0.00947   3.02013
   D15        0.98082  -0.00005  -0.00028   0.00747   0.00719   0.98800
   D16        3.08587   0.00015  -0.00013   0.00929   0.00915   3.09503
   D17        0.98085  -0.00006  -0.00028   0.00742   0.00714   0.98799
   D18       -1.04899  -0.00010  -0.00075   0.00560   0.00485  -1.04414
   D19        0.93880   0.00042   0.00052   0.01231   0.01282   0.95161
   D20        3.08747   0.00014  -0.00011   0.00837   0.00826   3.09573
   D21       -1.16565   0.00019   0.00036   0.01014   0.01050  -1.15515
   D22       -1.16583   0.00020   0.00036   0.01017   0.01053  -1.15530
   D23        0.98285  -0.00007  -0.00027   0.00623   0.00597   0.98881
   D24        3.01291  -0.00002   0.00020   0.00800   0.00821   3.02112
   D25        3.08766   0.00015  -0.00010   0.00827   0.00816   3.09582
   D26       -1.04685  -0.00013  -0.00073   0.00433   0.00360  -1.04326
   D27        0.98321  -0.00007  -0.00026   0.00610   0.00584   0.98905
   D28       -0.93891  -0.00040  -0.00051  -0.01220  -0.01270  -0.95161
   D29        1.16574  -0.00020  -0.00035  -0.01022  -0.01058   1.15517
   D30       -3.08745  -0.00015   0.00011  -0.00845  -0.00833  -3.09578
   D31       -3.08740  -0.00015   0.00011  -0.00843  -0.00831  -3.09571
   D32       -0.98274   0.00006   0.00027  -0.00645  -0.00619  -0.98893
   D33        1.04725   0.00011   0.00074  -0.00468  -0.00394   1.04331
   D34        1.16569  -0.00019  -0.00036  -0.01010  -0.01046   1.15523
   D35       -3.01284   0.00002  -0.00020  -0.00813  -0.00834  -3.02117
   D36       -0.98284   0.00007   0.00027  -0.00636  -0.00609  -0.98894
   D37        0.93847   0.00042   0.00052   0.01251   0.01301   0.95148
   D38        3.08744   0.00015  -0.00010   0.00835   0.00824   3.09567
   D39       -1.16618   0.00020   0.00036   0.01036   0.01072  -1.15547
   D40       -1.16598   0.00020   0.00036   0.01039   0.01075  -1.15523
   D41        0.98299  -0.00008  -0.00026   0.00623   0.00598   0.98897
   D42        3.01255  -0.00002   0.00020   0.00825   0.00846   3.02101
   D43        3.08721   0.00015  -0.00011   0.00859   0.00847   3.09568
   D44       -1.04701  -0.00013  -0.00072   0.00443   0.00370  -1.04332
   D45        0.98255  -0.00007  -0.00027   0.00644   0.00617   0.98873
   D46       -0.93771  -0.00042  -0.00050  -0.01291  -0.01340  -0.95111
   D47        1.16726  -0.00021  -0.00035  -0.01104  -0.01139   1.15587
   D48       -3.08623  -0.00015   0.00012  -0.00904  -0.00891  -3.09515
   D49       -3.08664  -0.00015   0.00011  -0.00882  -0.00870  -3.09534
   D50       -0.98167   0.00006   0.00027  -0.00695  -0.00669  -0.98835
   D51        1.04802   0.00013   0.00074  -0.00495  -0.00421   1.04381
   D52        1.16690  -0.00020  -0.00034  -0.01075  -0.01109   1.15580
   D53       -3.01131   0.00001  -0.00019  -0.00888  -0.00908  -3.02039
   D54       -0.98163   0.00007   0.00028  -0.00688  -0.00660  -0.98823
         Item               Value     Threshold  Converged?
 Maximum Force            0.000697     0.000450     NO 
 RMS     Force            0.000244     0.000300     YES
 Maximum Displacement     0.017666     0.001800     NO 
 RMS     Displacement     0.005826     0.001200     NO 
 Predicted change in Energy=-4.366935D-05
 GradGradGradGradGradGradGradGradGradGradGradGradGradGradGradGradGradGrad

                          Input orientation:                          
 ---------------------------------------------------------------------
 Center     Atomic      Atomic             Coordinates (Angstroms)
 Number     Number       Type             X           Y           Z
 ---------------------------------------------------------------------
      1          6           0       -1.674300   -0.964037    0.680934
      2          6           0       -0.138416   -0.961632    0.674759
      3          6           0        0.423712    0.467662    0.681815
      4          6           0       -0.136800    1.288302    1.852865
      5          6           0       -1.672680    1.286117    1.858956
      6          6           0       -2.235087   -0.143068    1.851597
      7          1           0        1.525741    0.444403    0.724673
      8          1           0        0.229300   -1.500941    1.568663
      9          1           0        0.240771   -1.516832   -0.199787
     10          1           0       -2.042080   -0.536661   -0.271537
     11          1           0       -2.054368   -1.998734    0.723508
     12          1           0        0.230892    0.860316    2.805099
     13          1           0        0.243472    2.322936    1.810797
     14          1           0       -2.051880    1.841150    2.733605
     15          1           0       -2.040206    1.825733    0.965160
     16          1           0       -1.972161   -0.641943    2.804014
     17          1           0       -3.337093   -0.119473    1.808082
     18          1           0        0.159982    0.966536   -0.270385
 ---------------------------------------------------------------------
                    Distance matrix (angstroms):
                    1          2          3          4          5
     1  C    0.000000
     2  C    1.535899   0.000000
     3  C    2.539964   1.535877   0.000000
     4  C    2.968225   2.539713   1.535898   0.000000
     5  C    2.539868   2.967940   2.539762   1.535894   0.000000
     6  C    1.535879   2.539887   2.968265   2.540006   1.535880
     7  H    3.496553   2.179184   1.103107   2.179226   3.496424
     8  H    2.167954   1.106857   2.167877   2.827486   3.386664
     9  H    2.179162   1.103113   2.179198   3.496386   3.969413
    10  H    1.106849   2.167952   2.828016   3.387280   2.828070
    11  H    1.103115   2.179181   3.496531   3.969524   3.496452
    12  H    3.386753   2.827408   2.167877   1.106851   2.167967
    13  H    3.969714   3.496399   2.179250   1.103106   2.179209
    14  H    3.496441   3.969355   3.496408   2.179191   1.103116
    15  H    2.827983   3.386819   2.827638   2.167904   1.106857
    16  H    2.167933   2.828171   3.387500   2.828264   2.168004
    17  H    2.179135   3.496454   3.969491   3.496528   2.179115
    18  H    2.827846   2.167988   1.106849   2.167903   2.827521
                    6          7          8          9         10
     6  C    0.000000
     7  H    3.969749   0.000000
     8  H    2.827910   2.485446   0.000000
     9  H    3.496466   2.520360   1.768558   0.000000
    10  H    2.167918   3.832006   3.078204   2.485416   0.000000
    11  H    2.179161   4.334294   2.485403   2.520390   1.768594
    12  H    2.827896   2.485517   2.665391   3.831484   4.072301
    13  H    3.496583   2.520469   3.831561   4.334313   4.211551
    14  H    2.179134   4.334291   4.210753   5.013689   3.832096
    15  H    2.167932   3.831695   4.072055   4.211021   2.666520
    16  H    1.106844   4.211784   2.666534   3.832143   3.078147
    17  H    1.103117   5.013869   3.832093   4.334196   2.485140
    18  H    3.386796   1.768632   3.078205   2.485685   2.666210
                   11         12         13         14         15
    11  H    0.000000
    12  H    4.210654   0.000000
    13  H    5.013891   1.768630   0.000000
    14  H    4.334190   2.485597   2.520383   0.000000
    15  H    3.832121   3.078196   2.485457   1.768551   0.000000
    16  H    2.485185   2.666500   3.832234   2.485370   3.078220
    17  H    2.520577   3.832042   4.334260   2.520398   2.485208
    18  H    3.831971   3.078135   2.485580   3.831610   2.665636
                   16         17         18
    16  H    0.000000
    17  H    1.768586   0.000000
    18  H    4.072489   4.210578   0.000000
 Stoichiometry    C6H12
 Framework group  C1[X(C6H12)]
 Deg. of freedom    48
 Full point group                 C1      NOp   1
 Largest Abelian subgroup         C1      NOp   1
 Largest concise Abelian subgroup C1      NOp   1
                         Standard orientation:                         
 ---------------------------------------------------------------------
 Center     Atomic      Atomic             Coordinates (Angstroms)
 Number     Number       Type             X           Y           Z
 ---------------------------------------------------------------------
      1          6           0       -1.194675   -0.850444   -0.228268
      2          6           0        0.139223   -1.459660    0.228411
      3          6           0        1.333820   -0.609343   -0.228555
      4          6           0        1.194677    0.850353    0.228510
      5          6           0       -0.139105    1.459686   -0.228337
      6          6           0       -1.333875    0.609400    0.228243
      7          1           0        2.276174   -1.039950    0.150116
      8          1           0        0.146307   -1.532078    1.332874
      9          1           0        0.237483   -2.491052   -0.150316
     10          1           0       -1.254254   -0.892932   -1.332695
     11          1           0       -2.038563   -1.451225    0.150913
     12          1           0        1.253890    0.892293    1.332980
     13          1           0        2.038685    1.451275   -0.150154
     14          1           0       -0.237464    2.491014    0.150547
     15          1           0       -0.145877    1.532316   -1.332787
     16          1           0       -1.400636    0.639873    1.332651
     17          1           0       -2.276009    1.039899   -0.151127
     18          1           0        1.399873   -0.639382   -1.333023
 ---------------------------------------------------------------------
 Rotational constants (GHZ):           4.2780247           4.2773930           2.4412618
 Standard basis: CC-pVDZ (5D, 7F)
 There are   150 symmetry adapted cartesian basis functions of A   symmetry.
 There are   144 symmetry adapted basis functions of A   symmetry.
   144 basis functions,   282 primitive gaussians,   150 cartesian basis functions
    24 alpha electrons       24 beta electrons
       nuclear repulsion energy       254.6953006870 Hartrees.
 NAtoms=   18 NActive=   18 NUniq=   18 SFac= 1.00D+00 NAtFMM=   60 NAOKFM=F Big=F
 Integral buffers will be    131072 words long.
 Raffenetti 2 integral format.
 Two-electron integral symmetry is turned on.
 One-electron integrals computed using PRISM.
 NBasis=   144 RedAO= T EigKep=  4.20D-03  NBF=   144
 NBsUse=   144 1.00D-06 EigRej= -1.00D+00 NBFU=   144
 Initial guess from the checkpoint file:  "C6H12_opt.chk"
 B after Tr=     0.000000    0.000000    0.000000
         Rot=    0.856044   -0.000004    0.000005   -0.516902 Ang= -62.25 deg.
 Requested convergence on RMS density matrix=1.00D-08 within 128 cycles.
 Requested convergence on MAX density matrix=1.00D-06.
 Requested convergence on             energy=1.00D-06.
 No special actions if energy rises.
 SCF Done:  E(RB3LYP) =  -235.885819082     A.U. after    7 cycles
            NFock=  7  Conv=0.20D-08     -V/T= 2.0087
 Calling FoFJK, ICntrl=      2127 FMM=F ISym2X=0 I1Cent= 0 IOpClX= 0 NMat=1 NMatS=1 NMatT=0.
 ***** Axes restored to original set *****
 -------------------------------------------------------------------
 Center     Atomic                   Forces (Hartrees/Bohr)
 Number     Number              X              Y              Z
 -------------------------------------------------------------------
      1        6           0.000081230   -0.000033629    0.000121358
      2        6          -0.000050787    0.000073726   -0.000111198
      3        6          -0.000026756   -0.000048398    0.000150559
      4        6          -0.000078535    0.000012744   -0.000130956
      5        6           0.000052474   -0.000068190    0.000115293
      6        6           0.000005094    0.000056286   -0.000143840
      7        1           0.000254331    0.000019593   -0.000039337
      8        1          -0.000083116    0.000120575    0.000075698
      9        1           0.000109475   -0.000160109   -0.000168994
     10        1           0.000090407    0.000132855    0.000054711
     11        1          -0.000110720   -0.000226860   -0.000041388
     12        1          -0.000088193   -0.000123408   -0.000051977
     13        1           0.000110056    0.000230146    0.000037457
     14        1          -0.000107775    0.000162245    0.000167290
     15        1           0.000081156   -0.000124362   -0.000077256
     16        1           0.000165575    0.000034493   -0.000057396
     17        1          -0.000251611   -0.000023229    0.000044335
     18        1          -0.000152306   -0.000034479    0.000055641
 -------------------------------------------------------------------
 Cartesian Forces:  Max     0.000254331 RMS     0.000114032

 GradGradGradGradGradGradGradGradGradGradGradGradGradGradGradGradGradGrad
 Berny optimization.
 Using GEDIIS/GDIIS optimizer.
 FormGI is forming the generalized inverse of G from B-inverse, IUseBI=4.
 Internal  Forces:  Max     0.000252641 RMS     0.000069360
 Search for a local minimum.
 Step number   3 out of a maximum of  108
 All quantities printed in internal units (Hartrees-Bohrs-Radians)
 Mixed Optimization -- En-DIIS/RFO-DIIS
 Swapping is turned off.
 Update second derivatives using D2CorX and points    1    2    3
 DE= -4.92D-05 DEPred=-4.37D-05 R= 1.13D+00
 TightC=F SS=  1.41D+00  RLast= 6.83D-02 DXNew= 8.4853D-01 2.0484D-01
 Trust test= 1.13D+00 RLast= 6.83D-02 DXMaxT set to 5.05D-01
 ITU=  1  1  0
     Eigenvalues ---    0.00646   0.00745   0.00746   0.02074   0.02075
     Eigenvalues ---    0.03769   0.04035   0.04035   0.04947   0.04955
     Eigenvalues ---    0.04980   0.04999   0.05652   0.05652   0.06238
     Eigenvalues ---    0.06687   0.08165   0.08166   0.08269   0.08271
     Eigenvalues ---    0.08272   0.08277   0.08317   0.08319   0.12136
     Eigenvalues ---    0.12166   0.12166   0.16153   0.16160   0.21872
     Eigenvalues ---    0.29217   0.29330   0.29336   0.30835   0.30841
     Eigenvalues ---    0.30944   0.31189   0.31381   0.31385   0.31385
     Eigenvalues ---    0.31386   0.31392   0.31464   0.31466   0.31468
     Eigenvalues ---    0.31471   0.31474   0.34346
 En-DIIS/RFO-DIIS/Sim-DIIS IScMMF=       -3 using points:     3    2
 RFO step:  Lambda=-6.99128620D-06.
 DidBck=F Rises=F RFO-DIIS coefs:    1.32803   -0.32803
 Iteration  1 RMS(Cart)=  0.00196790 RMS(Int)=  0.00000477
 Iteration  2 RMS(Cart)=  0.00000238 RMS(Int)=  0.00000414
 Iteration  3 RMS(Cart)=  0.00000000 RMS(Int)=  0.00000414
 Variable       Old X    -DE/DX   Delta X   Delta X   Delta X     New X
                                 (Linear)    (Quad)   (Total)
    R1        2.90243   0.00000  -0.00022   0.00017  -0.00006   2.90237
    R2        2.90239   0.00003  -0.00031   0.00033   0.00002   2.90241
    R3        2.09164  -0.00003  -0.00005  -0.00005  -0.00010   2.09154
    R4        2.08459   0.00025  -0.00084   0.00143   0.00059   2.08517
    R5        2.90239   0.00002  -0.00026   0.00027   0.00001   2.90240
    R6        2.09166  -0.00002  -0.00005  -0.00004  -0.00009   2.09156
    R7        2.08458   0.00025  -0.00086   0.00145   0.00059   2.08517
    R8        2.90243   0.00002  -0.00033   0.00033   0.00000   2.90242
    R9        2.08457   0.00025  -0.00083   0.00143   0.00060   2.08517
   R10        2.09164  -0.00003  -0.00003  -0.00007  -0.00010   2.09154
   R11        2.90242   0.00000  -0.00023   0.00018  -0.00005   2.90237
   R12        2.09165  -0.00003  -0.00003  -0.00006  -0.00009   2.09155
   R13        2.08457   0.00025  -0.00084   0.00143   0.00060   2.08516
   R14        2.90239   0.00002  -0.00025   0.00026   0.00001   2.90240
   R15        2.08459   0.00025  -0.00086   0.00144   0.00059   2.08517
   R16        2.09166  -0.00002  -0.00005  -0.00004  -0.00009   2.09156
   R17        2.09163  -0.00003  -0.00005  -0.00005  -0.00010   2.09153
   R18        2.08459   0.00025  -0.00084   0.00143   0.00059   2.08518
    A1        1.94695   0.00002  -0.00152   0.00090  -0.00064   1.94631
    A2        1.90520  -0.00004   0.00085  -0.00156  -0.00071   1.90449
    A3        1.92427   0.00001  -0.00014   0.00086   0.00072   1.92499
    A4        1.90518  -0.00004   0.00085  -0.00152  -0.00066   1.90452
    A5        1.92427   0.00002  -0.00025   0.00092   0.00067   1.92494
    A6        1.85553   0.00003   0.00034   0.00031   0.00065   1.85618
    A7        1.94704   0.00000  -0.00147   0.00076  -0.00073   1.94632
    A8        1.90520  -0.00004   0.00087  -0.00156  -0.00068   1.90451
    A9        1.92425   0.00002  -0.00023   0.00090   0.00068   1.92492
   A10        1.90512  -0.00004   0.00090  -0.00152  -0.00061   1.90451
   A11        1.92432   0.00003  -0.00029   0.00100   0.00071   1.92504
   A12        1.85547   0.00003   0.00034   0.00033   0.00067   1.85614
   A13        1.94675   0.00004  -0.00146   0.00107  -0.00040   1.94635
   A14        1.92431   0.00000  -0.00018   0.00079   0.00062   1.92493
   A15        1.90528  -0.00005   0.00085  -0.00165  -0.00079   1.90449
   A16        1.92434   0.00001  -0.00027   0.00094   0.00067   1.92501
   A17        1.90514  -0.00004   0.00090  -0.00157  -0.00067   1.90447
   A18        1.85560   0.00004   0.00028   0.00031   0.00059   1.85618
   A19        1.94679   0.00002  -0.00146   0.00094  -0.00054   1.94626
   A20        1.90510  -0.00004   0.00090  -0.00151  -0.00061   1.90449
   A21        1.92438   0.00001  -0.00027   0.00088   0.00061   1.92499
   A22        1.90523  -0.00004   0.00082  -0.00156  -0.00073   1.90450
   A23        1.92433   0.00001  -0.00017   0.00086   0.00069   1.92501
   A24        1.85559   0.00003   0.00030   0.00030   0.00060   1.85619
   A25        1.94709   0.00000  -0.00150   0.00075  -0.00076   1.94633
   A26        1.92429   0.00001  -0.00023   0.00089   0.00065   1.92495
   A27        1.90514  -0.00003   0.00090  -0.00154  -0.00064   1.90450
   A28        1.92423   0.00003  -0.00028   0.00103   0.00076   1.92499
   A29        1.90519  -0.00004   0.00089  -0.00155  -0.00066   1.90453
   A30        1.85545   0.00003   0.00035   0.00033   0.00068   1.85613
   A31        1.94695   0.00003  -0.00153   0.00102  -0.00053   1.94642
   A32        1.90521  -0.00004   0.00085  -0.00157  -0.00071   1.90449
[...]
 68,0.1374781,-0.2193029,-0.0155178,0.0299071,-0.0008235,0.00592,-0.020
 8488,0.0018617,-0.0208357,0.0347692,-0.0273814,0.0111183,-0.0477563,0.
 0111378,-0.0361865,0.0700357,-0.0774976,0.1136445,-0.103825,-0.0294593
 ,0.0357831,0.0664068,0.0357701,-0.0573684,-0.0972766,0.0842432,-0.1234
 304,-0.0917982,-0.0273339,0.032957,-0.0362918,0.0574339,0.0040403,0.08
 57067,-0.0533185,0.0421262,-0.1440958,-0.0296308,-0.0751482,0.0084188,
 -0.0898011,-0.1837747,-0.0356347,0.0186318,-0.0094903,0.0347824,-0.027
 3322,0.0329588,-0.0362905,0.0574357,0.0040347,0.0857124,-0.053318,0.04
 21316,-0.144092,-0.0296328,-0.0751512,0.0084165,-0.0898026,-0.1837725,
 -0.0356401,0.0186296,-0.0094982,0.0347826,-0.0294595,0.0357821,0.06640
 74,0.0357699,-0.057366,-0.0972752,0.0842433,-0.1234302,-0.0918005,-0.0
 273807,0.0111189,-0.0477542,0.0111375,-0.0361896,0.0700379,-0.0774952,
 0.1136467,-0.1038227,0.0306479,0.0347336,-0.0663822,0.0102665,-0.05391
 54,0.0651279,-0.0196438,0.0650897,-0.1441224,-0.2193031,-0.0155144,0.0
 299001,-0.0008187,0.0059199,-0.0208488,0.001852,-0.0208353,0.034769,0.
 0306438,0.0347378,-0.0663894,0.0102704,-0.0539142,0.0651283,-0.0196504
 ,0.0650903,-0.1441193\Polar=67.6512708,1.0993858,66.7835029,-2.1025001
 ,3.0835192,62.5129055\Quadrupole=-0.0961443,-0.0551072,0.1512515,-0.05
 32175,0.1010478,-0.1487953\PG=C01 [X(C6H12)]\NImag=0\\0.46750768,0.031
 38604,0.57294147,0.03062889,-0.03783655,0.51896852,-0.18526714,0.00166
 587,-0.00233388,0.46715289,0.00115228,-0.07996837,-0.00122239,-0.04317
 101,0.50111474,-0.00252621,-0.00000117,-0.07923979,-0.00823959,0.01206
 285,0.59089920,-0.01749628,-0.03544464,0.00013025,-0.09303605,-0.03449
 456,0.00087118,0.58018693,-0.00794547,-0.00052328,0.00074596,-0.034984
 64,-0.17236842,0.00226323,-0.01274987,0.46044231,-0.00076496,0.0000933
 7,0.00117485,0.00193218,0.00163042,-0.07925226,0.02407891,-0.04229192,
 0.51900071,0.00057790,0.00083614,-0.00049682,0.00711514,-0.00445409,-0
 .00972858,-0.09310150,0.01834026,0.02979803,0.46750854,0.00083612,0.00
 258359,0.00006375,0.01046182,-0.02350731,-0.02749663,0.01893517,-0.107
 69045,-0.04259662,0.03138747,0.57294595,-0.00049680,0.00006375,-0.0003
 9183,-0.00189336,-0.00580881,-0.00039493,0.02884284,-0.04326044,-0.143
 95080,0.03062886,-0.03783271,0.51896515,0.00711546,0.01046224,-0.00189
 331,0.00063238,-0.00009049,-0.00099120,-0.01747013,0.00514658,0.006115
 68,-0.18526785,0.00166699,-0.00233374,0.46715374,-0.00445430,-0.023506
 65,-0.00580847,-0.00009049,0.00058729,0.00140718,0.02006793,0.00100493
 ,-0.00033808,0.00115348,-0.07996855,-0.00122241,-0.04317167,0.50111227
 ,-0.00972872,-0.02749573,-0.00039457,-0.00099122,0.00140718,0.00156107
 ,0.02917734,-0.00098063,-0.00038563,-0.00252665,-0.00000103,-0.0792394
 0,-0.00824110,0.01205988,0.59089953,-0.09310202,0.01893595,0.02884280,
 -0.01747001,0.02006826,0.02917654,0.00289919,-0.00004347,0.00012769,-0
 .01749665,-0.03544438,0.00012955,-0.09303640,-0.03449488,0.00087083,0.
 58018094,0.01834125,-0.10769153,-0.04325943,0.00514638,0.00100511,-0.0
 0098027,-0.00004349,0.00029666,0.00047426,-0.00794520,-0.00052270,0.00
 074577,-0.03498501,-0.17236612,0.00226199,-0.01275099,0.46044203,0.029
 79752,-0.04259614,-0.14394801,0.00611530,-0.00033792,-0.00038509,0.000
 12770,0.00047426,-0.00040385,-0.00076527,0.00009303,0.00117487,0.00193
 164,0.00162984,-0.07925274,0.02408255,-0.04229369,0.51900408,0.0011274
 0,-0.00332513,0.00014303,-0.01072019,0.00139270,-0.00085000,-0.3020744
 7,0.00660533,-0.01229218,-0.01069060,-0.00008471,-0.00161922,0.0011325
 8,0.00176891,0.00280454,0.00061344,0.00023297,-0.00044687,0.32768881,-
 0.00061265,-0.00649580,0.00012628,-0.03263561,0.00084856,-0.00165316,0
 .00787319,-0.04619891,0.00054553,0.01819955,-0.00091836,0.00197106,0.0
 0052655,-0.00186301,-0.00355338,0.00013430,-0.00046300,-0.00030160,-0.
 00669551,0.05217360,-0.00022226,-0.00033655,0.00051309,0.00048959,0.00
 076621,-0.00112472,-0.01471700,0.00054497,-0.04693504,0.02710670,-0.00
 046733,0.00061177,0.00036847,-0.00308733,-0.00412364,-0.00025873,-0.00
 030147,-0.00004366,0.01244826,0.00175112,0.04972399,-0.01338905,0.0160
 0318,-0.02827015,-0.07182436,0.03928246,-0.06434080,0.00316533,-0.0072
 3122,0.01075665,-0.00002517,0.00061536,-0.00003598,-0.00020502,-0.0000
 3831,0.00017882,0.00167880,-0.00015230,-0.00152043,0.00059096,0.000432
 84,0.00043669,0.08214010,-0.00074005,-0.00026205,-0.00047954,0.0392756
 5,-0.10266750,0.09442317,0.00950237,-0.01684654,0.02615630,0.00051976,
 0.00150473,0.00164597,-0.00002989,-0.00016546,-0.00026313,-0.00005157,
 -0.00019939,0.00063695,-0.00019449,0.00119203,-0.00024188,-0.04023453,
 0.11373458,-0.00013591,-0.00008151,-0.00126007,-0.06559512,0.09626720,
 -0.21229321,0.00012939,0.00008502,-0.00123944,0.00010056,-0.00064355,0
 .00069419,0.00004761,-0.00006968,0.00013184,0.00057198,-0.00032612,0.0
 0069552,0.00055679,0.00031894,0.00031689,0.07292761,-0.10701538,0.2293
 0005,-0.01126970,0.01697687,0.02768495,-0.07514259,0.04281014,0.068573
 81,0.00394059,-0.00611847,-0.01099802,-0.00069469,-0.00259161,0.000289
 22,-0.00019869,-0.00062331,-0.00011807,-0.00681877,-0.00127227,-0.0021
 4964,0.00046107,0.00048427,-0.00036266,0.00312459,-0.00530923,-0.00803
 722,0.08408339,-0.00016793,-0.00031502,0.00096774,0.04280226,-0.108591
 14,-0.10039486,0.01104496,-0.01550872,-0.02542712,-0.00367328,-0.00530
 773,0.00218770,-0.00061948,0.00029131,0.00017231,-0.00019272,0.0008180
 2,0.00052817,-0.00032870,0.00105631,0.00007429,-0.00532004,0.00728803,
 0.01179426,-0.04539455,0.11954366,-0.00183198,0.00138030,0.00058759,0.
 07011466,-0.10265593,-0.21147819,-0.00060847,0.00219687,0.00056942,-0.
 00047748,-0.00024790,0.00114786,-0.00023628,0.00034749,0.00001437,0.00
 039912,0.00035235,0.00114731,-0.00047833,-0.00033813,0.00001006,0.0083
 8173,-0.01227196,-0.02076670,-0.07613317,0.11147273,0.22595542,-0.0718
 1559,0.03052882,-0.06891225,-0.01336156,0.01416186,-0.02926183,0.00168
 378,0.00133584,-0.00074901,-0.00019830,-0.00012742,0.00013134,-0.00001
 706,-0.00031121,-0.00052778,0.00315904,-0.00471102,0.01204266,0.000309
 53,0.00010143,0.00051919,-0.00687066,-0.00033310,-0.00016709,0.0011943
 1,0.00019184,0.00039099,0.08208461,0.03156987,-0.08751281,0.08577217,0
 .00056801,-0.00120231,0.00060149,-0.00044006,0.00055017,-0.00085235,-0
 .00001895,-0.00012227,-0.00010412,-0.00036849,0.00143286,-0.00059494,-
 0.00552378,0.00599703,-0.01574483,0.00009687,0.00006432,-0.00002365,0.
 00033580,0.00110807,-0.00041272,0.00029784,-0.00001542,0.00001644,-0.0
 3707029,0.09167328,-0.06964181,0.08391099,-0.22745466,0.00055308,0.000
 17852,-0.00031686,0.00036248,0.00011343,-0.00006031,0.00005452,-0.0002
 9839,0.00008260,-0.00035800,0.00171114,0.00077200,-0.00773742,0.010349
 47,-0.02407185,0.00000747,-0.00018128,0.00024392,0.00018270,0.00002562
 ,0.00137679,-0.00044729,-0.00007441,0.00092112,0.07459565,-0.09173797,
 0.25138243,-0.07531562,-0.08096609,0.00391085,-0.01130525,-0.03241641,
 0.00182529,-0.00681702,0.00249934,-0.00017416,-0.00019561,0.00045137,0
 .00044390,-0.00068637,0.00124081,0.00228907,0.00394223,0.01249136,-0.0
 0123370,-0.00089997,-0.00208658,-0.00018351,0.00119107,0.00019779,-0.0
 0050014,0.00103036,0.00026159,0.00048993,0.00313541,0.00962626,-0.0002
 1727,0.08427473,-0.08223728,-0.27297089,0.01147266,0.00161622,0.001426
 97,0.00019067,-0.00020979,0.00144927,-0.00008766,0.00054910,0.00034479
 ,0.00030643,0.00248637,-0.00004072,-0.00390409,-0.00581042,-0.01553655
 ,0.00221069,0.00009420,-0.00011942,-0.00009561,-0.00043152,0.00059018,
 -0.00040182,-0.00055183,0.00048739,0.00032173,-0.00387459,-0.01189127,
 0.00102051,0.08867153,0.29560931,0.00479209,0.01372938,-0.04691715,-0.
 00089783,-0.00019991,-0.00112403,0.00038936,0.00008620,0.00051270,0.00
 037561,0.00013133,-0.00004321,0.00274579,-0.00146645,-0.00412335,-0.00
 945079,-0.02541319,0.00058935,0.00015505,0.00013416,0.00041770,0.00006
 488,-0.00049412,0.00031568,0.00006367,0.00036470,0.00001089,0.00917380
 ,0.02507051,-0.00159826,-0.00610067,-0.01075870,0.04970659,-0.00019832
 ,-0.00012742,0.00013135,-0.00001703,-0.00031122,-0.00052778,0.00315913
 ,-0.00471125,0.01204217,-0.07181456,0.03053028,-0.06890915,-0.01336129
 ,0.01416284,-0.02926154,0.00168386,0.00133572,-0.00074898,0.00058891,-
 0.00060510,-0.00010442,0.00008568,-0.00000846,-0.00025338,-0.00006613,
 -0.00013693,-0.00000759,-0.00001503,0.00006431,0.00016122,0.00006417,-
 0.00008510,-0.00007783,0.08208319,-0.00001896,-0.00012225,-0.00010411,
 -0.00036852,0.00143287,-0.00059516,-0.00552352,0.00599706,-0.01574410,
 0.03157148,-0.08751860,0.08577701,0.00056812,-0.00120248,0.00060187,-0
 .00044008,0.00055014,-0.00085233,-0.00034608,0.00063828,0.00070429,0.0
 0020366,-0.00010890,0.00018416,0.00013887,0.00019814,0.00024066,0.0000
 6431,-0.00013482,0.00011741,-0.00003964,-0.00001362,0.00003706,-0.0370
 7189,0.09168011,0.00005448,-0.00029841,0.00008259,-0.00035804,0.001711
 40,0.00077208,-0.00773772,0.01035017,-0.02407233,-0.06963883,0.0839155
 3,-0.22744824,0.00055299,0.00017846,-0.00031691,0.00036248,0.00011343,
 -0.00006031,0.00047992,0.00014366,0.00086847,-0.00014308,-0.00112005,0
 .00054901,0.00031463,-0.00008513,0.00048609,0.00016123,0.00011741,0.00
 007468,-0.00010951,-0.00004412,-0.00002344,0.07459273,-0.09174318,0.25
 137597,-0.00019561,0.00045139,0.00044391,-0.00068627,0.00124089,0.0022
 8912,0.00394223,0.01249116,-0.00123351,-0.07531806,-0.08096945,0.00390
 839,-0.01130547,-0.03241628,0.00182446,-0.00681695,0.00249948,-0.00017
 426,0.00046223,0.00002168,-0.00060465,-0.00006643,-0.00033726,0.000065
 42,0.00050041,0.00079385,0.00033241,0.00006417,-0.00003964,-0.00010951
 ,0.00021191,-0.00007252,-0.00009067,0.00313548,0.00962596,-0.00021696,
 0.08427718,0.00054912,0.00034478,0.00030641,0.00248620,-0.00004076,-0.
 00390410,-0.00581029,-0.01553574,0.00221052,-0.08224050,-0.27297011,0.
 01146500,0.00161641,0.00142742,0.00019072,-0.00020966,0.00144926,-0.00
 008768,0.00057976,0.00022586,0.00023847,0.00008471,0.00046620,0.000055
 23,-0.00072718,-0.00113717,-0.00014289,-0.00008509,-0.00001362,-0.0000
 4411,-0.00007252,-0.00001765,0.00008554,-0.00387510,-0.01189225,0.0010
 2026,0.08867496,0.29560830,0.00037559,0.00013129,-0.00004321,0.0027457
 3,-0.00146631,-0.00412360,-0.00945129,-0.02541327,0.00058916,0.0047895
 8,0.01372155,-0.04691651,-0.00089777,-0.00019988,-0.00112407,0.0003894
 0,0.00008622,0.00051274,-0.00000145,0.00064994,0.00084104,0.00010788,-
 0.00027040,0.00021865,-0.00046490,-0.00154802,0.00003510,-0.00007783,0
 .00003705,-0.00002343,-0.00009068,0.00008554,0.00007001,0.00917402,0.0
 2507011,-0.00159749,-0.00609792,-0.01075063,0.04970555,-0.00069477,-0.
 00259157,0.00028930,-0.00019871,-0.00062329,-0.00011805,-0.00681886,-0
 .00127215,-0.00214959,-0.01126937,0.01697647,0.02768512,-0.07514276,0.
 04280927,0.06857408,0.00394074,-0.00611863,-0.01099824,-0.00089765,0.0
 0134029,0.00161061,0.00006442,0.00011208,-0.00002987,0.00021217,0.0001
 1589,0.00000776,-0.00006613,0.00013890,0.00031460,0.00050041,-0.000727
 17,-0.00046489,0.00119428,0.00029783,-0.00044729,0.00103038,-0.0005518
 4,0.00006367,0.08408330,-0.00367338,-0.00530757,0.00218762,-0.00061948
 ,0.00029134,0.00017233,-0.00019265,0.00081803,0.00052823,-0.00016786,-
 0.00031521,0.00096752,0.04280144,-0.10858827,-0.10039351,0.01104490,-0
 .01550897,-0.02542719,-0.00017979,0.00026018,-0.00013152,0.00011241,-0
 .00002317,0.00004390,0.00011588,0.00012133,-0.00001109,-0.00013692,0.0
 0019811,-0.00008517,0.00079383,-0.00113720,-0.00154797,0.00019182,-0.0
 0001544,-0.00007443,0.00026157,0.00048739,0.00036472,-0.04539353,0.119
 54103,-0.00047753,-0.00024792,0.00114802,-0.00023625,0.00034750,0.0000
 1437,0.00039913,0.00035235,0.00114721,-0.00183201,0.00138039,0.0005877
 5,0.07011498,-0.10265462,-0.21148048,-0.00060823,0.00219664,0.00056900
 ,0.00001106,-0.00036031,0.00003594,0.00002549,-0.00003718,-0.00001350,
 0.00000776,-0.00001109,-0.00006927,-0.00000761,0.00024070,0.00048604,0
 .00033240,-0.00014288,0.00003505,0.00039101,0.00001641,0.00092107,0.00
 048995,0.00032173,0.00001092,-0.07613360,0.11147125,0.22595791,-0.0000
 2518,0.00061537,-0.00003600,-0.00020501,-0.00003829,0.00017881,0.00167
 880,-0.00015233,-0.00152065,-0.01338900,0.01600387,-0.02826981,-0.0718
 2319,0.03928293,-0.06433923,0.00316515,-0.00723157,0.01075697,0.000309
 00,-0.00048421,0.00021221,-0.00001525,-0.00016926,0.00003900,0.0000644
 2,0.00011241,0.00002549,0.00008569,0.00020366,-0.00014310,-0.00006643,
 0.00008472,0.00010786,-0.00687067,0.00033586,0.00018270,0.00119105,-0.
 00043155,0.00006488,0.00312450,-0.00532016,0.00838160,0.08213907,0.000
 51975,0.00150471,0.00164570,-0.00002993,-0.00016547,-0.00026313,-0.000
 05158,-0.00019938,0.00063701,-0.00073985,-0.00026215,-0.00047922,0.039
 27611,-0.10267110,0.09442570,0.00950192,-0.01684655,0.02615620,-0.0000
 6235,0.00009009,-0.00019925,-0.00016924,0.00011774,-0.00005705,0.00011
 208,-0.00002317,-0.00003718,-0.00000842,-0.00010890,-0.00111996,-0.000
 33725,0.00046616,-0.00027041,-0.00033299,0.00110807,0.00002563,0.00019
 782,0.00059017,-0.00049410,-0.00530905,0.00728813,-0.01227167,-0.04023
 506,0.11373813,0.00010056,-0.00064332,0.00069416,0.00004761,-0.0000696
 8,0.00013184,0.00057210,-0.00032618,0.00069556,-0.00013596,-0.00008139
 ,-0.00126027,-0.06559353,0.09626962,-0.21229133,0.00012965,0.00008470,
 -0.00123890,-0.00007537,-0.00004099,0.00021847,0.00003898,-0.00005706,
 -0.00017695,-0.00002986,0.00004390,-0.00001350,-0.00025338,0.00018419,
 0.00054893,0.00006539,0.00005526,0.00021862,-0.00016713,-0.00041275,0.
 00137676,-0.00050014,-0.00040180,0.00031565,-0.00803713,0.01179471,-0.
 02076669,0.07292572,-0.10701814,0.22929783,0.00213713,-0.00513777,0.01
 028586,0.00099736,-0.00077356,0.00075885,-0.00018196,-0.00002535,0.000
 04957,0.00099513,-0.00018467,0.00107057,0.00220353,-0.00550495,0.01010
 643,-0.06426846,0.02857875,-0.05456480,-0.00004601,0.00000331,-0.00000
 584,-0.00000207,0.00023692,-0.00008779,0.00016374,0.00004913,-0.000221
 31,0.00005330,0.00098577,0.00219892,0.00030993,-0.00023499,-0.00061698
 ,-0.00001454,-0.00007992,-0.00025615,0.00016388,0.00015333,-0.00016703
 ,0.00031326,0.00064151,-0.00015857,0.00004803,-0.00237445,0.00044345,0
 .06512022,-0.00429288,0.00701542,-0.01693995,-0.00071565,0.00039712,0.
 00026912,-0.00013458,-0.00013834,-0.00015879,0.00158856,0.00120467,0.0
 0039072,0.00806534,-0.01672969,0.02745171,0.02753333,-0.09508598,0.095
 52492,-0.00004260,0.00009608,0.00008638,0.00003378,-0.00000812,0.00029
 984,-0.00022670,-0.00003162,0.00009452,0.00180681,-0.00103660,-0.00348
 081,-0.00049536,0.00091834,0.00035345,-0.00092769,0.00037589,-0.000548
 62,0.00015831,0.00020911,-0.00049150,0.00053891,0.00086564,-0.00035768
 ,-0.00304297,-0.00581042,0.00000016,-0.03039861,0.10865066,-0.00679727
 ,0.01098672,-0.02407176,-0.00144435,0.00096083,0.00076429,0.00025537,-
 0.00015973,0.00008384,-0.00023207,-0.00029060,-0.00005992,-0.00037714,
 -0.00048395,-0.00028644,-0.05255609,0.09552351,-0.22743639,0.00008108,
 0.00008599,-0.00002334,0.00108946,-0.00027161,0.00055562,-0.00003580,-
 0.00032403,0.00048531,0.00244274,-0.00331419,-0.00340202,-0.00030839,-
 0.00039407,0.00086821,0.00060349,0.00004050,0.00017032,0.00016585,-0.0
 0007299,0.00024367,0.00023200,0.00039034,0.00092132,-0.00009268,-0.000
 16657,0.00137722,0.05801905,-0.10299001,0.25135781,-0.01069136,-0.0000
 8453,-0.00161938,0.00113258,0.00176905,0.00280458,0.00061344,0.0002329
 7,-0.00044688,0.00112734,-0.00332525,0.00014294,-0.01072082,0.00139278
 ,-0.00085027,-0.30207220,0.00660991,-0.01230171,-0.00003635,0.00002459
 ,-0.00004658,0.00030898,-0.00006233,-0.00007538,-0.00089768,-0.0001797
 8,0.00001106,0.00058900,-0.00034612,0.00047991,0.00046217,0.00057975,-
 0.00000145,0.00030953,0.00009687,0.00000747,-0.00089999,0.00009420,0.0
 0015505,0.00046103,-0.00032869,-0.00047832,0.00059101,-0.00019446,0.00
 055681,-0.00791734,0.00046410,-0.00087733,0.32768666,0.01819989,-0.000
 91855,0.00197142,0.00052646,-0.00186312,-0.00355331,0.00013430,-0.0004
 6298,-0.00030159,-0.00061276,-0.00649574,0.00012609,-0.03263548,0.0008
 4879,-0.00165402,0.00787789,-0.04619912,0.00054609,0.00002459,0.000230
 56,0.00011584,-0.00048420,0.00009007,-0.00004097,0.00134028,0.00026019
 ,-0.00036030,-0.00060511,0.00063836,0.00014367,0.00002163,0.00022581,0
 .00064993,0.00010145,0.00006432,-0.00018128,-0.00208657,-0.00011940,0.
 00013417,0.00048429,0.00105625,-0.00033811,0.00043280,0.00119207,0.000
 31894,0.01397764,-0.00081764,0.00058679,-0.00670042,0.05217405,0.02710
 644,-0.00046787,0.00061214,0.00036861,-0.00308745,-0.00412341,-0.00025
 877,-0.00030146,-0.00004365,-0.00022217,-0.00033656,0.00051307,0.00048
 942,0.00076631,-0.00112467,-0.01472675,0.00054553,-0.04693590,-0.00004
 659,0.00011584,0.00007009,0.00021222,-0.00019924,0.00021845,0.00161057
 ,-0.00013151,0.00003590,-0.00010433,0.00070429,0.00086854,-0.00060464,
 0.00023848,0.00084094,0.00051919,-0.00002367,0.00024392,-0.00018351,-0
 .00009560,0.00041770,-0.00036263,0.00007429,0.00001000,0.00043673,-0.0
 0024188,0.00031694,-0.02668633,0.00060347,-0.00162195,0.01245839,0.001
 75064,0.04972521,0.00099508,-0.00018471,0.00107059,0.00220382,-0.00550
 472,0.01010586,-0.06427314,0.02858273,-0.05457192,0.00213730,-0.005137
 43,0.01028532,0.00099734,-0.00077356,0.00075901,-0.00018194,-0.0000253
 6,0.00004957,-0.00791869,0.01397765,-0.02668607,0.00004808,-0.00237441
 ,0.00044354,0.00031320,0.00064148,-0.00015856,-0.00001451,-0.00007996,
 -0.00025615,0.00016389,0.00015332,-0.00016700,0.00005332,0.00098565,0.
 00219895,0.00030986,-0.00023496,-0.00061694,0.00016376,0.00004909,-0.0
 0022128,-0.00000199,0.00023695,-0.00008776,-0.00007513,0.00008790,-0.0
 0016791,-0.00004601,0.00000332,-0.00000585,0.06512577,0.00158857,0.001
 20480,0.00039074,0.00806645,-0.01672959,0.02745175,0.02753712,-0.09508
 568,0.09552256,-0.00429333,0.00701547,-0.01693931,-0.00071563,0.000397
 17,0.00026909,-0.00013460,-0.00013834,-0.00015879,0.00046404,-0.000817
 37,0.00060302,-0.00304285,-0.00581051,0.00000023,0.00053890,0.00086560
 ,-0.00035773,-0.00092774,0.00037583,-0.00054865,0.00015835,0.00020911,
 -0.00049151,0.00180673,-0.00103653,-0.00348075,-0.00049536,0.00091822,
 0.00035353,-0.00022672,-0.00003161,0.00009449,0.00003377,-0.00000812,0
 .00029983,0.00008790,-0.00007452,-0.00010692,-0.00004261,0.00009608,0.
 00008638,-0.03040299,0.10864998,-0.00023213,-0.00029063,-0.00005990,-0
 .00037711,-0.00048370,-0.00028675,-0.05256280,0.09552116,-0.22743014,-
 0.00679802,0.01098713,-0.02407213,-0.00144454,0.00096095,0.00076439,0.
 00025542,-0.00015971,0.00008383,-0.00087720,0.00058634,-0.00162102,-0.
 00009268,-0.00016648,0.00137717,0.00023201,0.00039036,0.00092122,0.000
 60350,0.00004051,0.00017033,0.00016584,-0.00007300,0.00024368,0.002442
 64,-0.00331419,-0.00340224,-0.00030838,-0.00039409,0.00086814,-0.00003
 584,-0.00032405,0.00048535,0.00108952,-0.00027169,0.00055566,-0.000167
 91,-0.00010692,0.00007420,0.00008109,0.00008599,-0.00002335,0.05802659
 ,-0.10298798,0.25135155\\0.00000711,0.00002304,-0.00000995,-0.00001304
 ,-0.00002361,0.00000683,0.00001765,0.00000248,-0.00000630,-0.00000730,
 -0.00002269,0.00000871,0.00001356,0.00002418,-0.00000704,-0.00001737,-
 0.00000305,0.00000754,0.00000240,-0.00000860,-0.00000250,-0.00000346,-
 0.00000057,-0.00000144,0.00000127,0.00000160,-0.00000504,0.00000059,0.
 00000106,0.00000685,-0.00000418,0.00000009,0.00000947,-0.00000063,-0.0
 0000137,-0.00000663,0.00000439,-0.00000034,-0.00000876,-0.00000148,-0.
 00000184,0.00000523,0.00000340,0.00000053,0.00000160,0.00000480,0.0000
 0257,0.00000279,-0.00000259,0.00000893,0.00000168,-0.00000512,-0.00000
 243,-0.00000302\\\@


 IN THE UNIVERSE THE DIFFICULT THINGS ARE DONE AS IF THEY WERE EASY.

                                                          -- LAO-TSU
 Job cpu time:       0 days  0 hours 22 minutes 44.1 seconds.
 Elapsed time:       0 days  0 hours  2 minutes 51.6 seconds.
 File lengths (MBytes):  RWF=     43 Int=      0 D2E=      0 Chk=      3 Scr=      1
 Normal termination of Gaussian 16 at Tue May 26 17:24:58 2020.
