Title section
Stability RHF                                                         STO-6G
Number of atoms                            I               18
Info1-9                                    I   N=           9
          43          28           0           0           0         110
           7           1           2
Full Title                                 C   N=           2
Title section
Route                                      C   N=          11
#p int=(nobasistransform) nosymm pop=full punch=gamessinput
gfprint uhf/sto-6g 6D 10F guess=mix SCF=(xqc, maxcycle=500)
stable=opt
Charge                                     I                0
Multiplicity                               I                1
Number of electrons                        I              108
Number of alpha electrons                  I               54
Number of beta electrons                   I               54
Number of basis functions                  I               90
Number of independent functions            I               90
Number of point charges in /Mol/           I                0
Number of translation vectors              I                0
Atomic numbers                             I   N=          18
           6           6           6           6           6           6
           6           6           6           6           6           6
           6           6           6           6           6           6
Nuclear charges                            R   N=          18
  6.00000000E+00  6.00000000E+00  6.00000000E+00  6.00000000E+00  6.00000000E+00
  6.00000000E+00  6.00000000E+00  6.00000000E+00  6.00000000E+00  6.00000000E+00
  6.00000000E+00  6.00000000E+00  6.00000000E+00  6.00000000E+00  6.00000000E+00
  6.00000000E+00  6.00000000E+00  6.00000000E+00
Current cartesian coordinates              R   N=          54
  1.15387142E+00  6.88233765E+00  0.00000000E+00 -1.15387142E+00  6.88233765E+00
  0.00000000E+00 -3.53996457E+00  6.01387077E+00  0.00000000E+00 -5.30779815E+00
  4.53048225E+00  0.00000000E+00 -6.57741180E+00  2.33144692E+00  0.00000000E+00
 -6.97814714E+00  5.87638684E-02  0.00000000E+00 -6.53721494E+00 -2.44188686E+00
  0.00000000E+00 -5.38334352E+00 -4.44045078E+00  0.00000000E+00 -3.43818256E+00
 -6.07263462E+00  0.00000000E+00 -1.26961365E+00 -6.86192917E+00  0.00000000E+00
  1.26961365E+00 -6.86192917E+00  0.00000000E+00  3.43818256E+00 -6.07263462E+00
  0.00000000E+00  5.38334352E+00 -4.44045078E+00  0.00000000E+00  6.53721494E+00
 -2.44188686E+00  0.00000000E+00  6.97814714E+00  5.87638684E-02  0.00000000E+00
  6.57741180E+00  2.33144692E+00  0.00000000E+00  5.30779815E+00  4.53048225E+00
  0.00000000E+00  3.53996457E+00  6.01387077E+00  0.00000000E+00
Number of symbols in /Mol/                 I                0
Force Field                                I                0
Atom Types                                 C   N=          18




Int Atom Types                             I   N=          18
           0           0           0           0           0           0
           0           0           0           0           0           0
           0           0           0           0           0           0
MM charges                                 R   N=          18
  0.00000000E+00  0.00000000E+00  0.00000000E+00  0.00000000E+00  0.00000000E+00
  0.00000000E+00  0.00000000E+00  0.00000000E+00  0.00000000E+00  0.00000000E+00
  0.00000000E+00  0.00000000E+00  0.00000000E+00  0.00000000E+00  0.00000000E+00
  0.00000000E+00  0.00000000E+00  0.00000000E+00
Integer atomic weights                     I   N=          18
          12          12          12          12          12          12
          12          12          12          12          12          12
          12          12          12          12          12          12
Real atomic weights                        R   N=          18
  1.20000000E+01  1.20000000E+01  1.20000000E+01  1.20000000E+01  1.20000000E+01
  1.20000000E+01  1.20000000E+01  1.20000000E+01  1.20000000E+01  1.20000000E+01
  1.20000000E+01  1.20000000E+01  1.20000000E+01  1.20000000E+01  1.20000000E+01
  1.20000000E+01  1.20000000E+01  1.20000000E+01
Atom fragment info                         I   N=          18
           0           0           0           0           0           0
           0           0           0           0           0           0
           0           0           0           0           0           0
Atom residue num                           I   N=          18
           0           0           0           0           0           0
           0           0           0           0           0           0
           0           0           0           0           0           0
Nuclear spins                              I   N=          18
           0           0           0           0           0           0
           0           0           0           0           0           0
           0           0           0           0           0           0
Nuclear ZEff                               R   N=          18
 -3.60000000E+00 -3.60000000E+00 -3.60000000E+00 -3.60000000E+00 -3.60000000E+00
 -3.60000000E+00 -3.60000000E+00 -3.60000000E+00 -3.60000000E+00 -3.60000000E+00
 -3.60000000E+00 -3.60000000E+00 -3.60000000E+00 -3.60000000E+00 -3.60000000E+00
 -3.60000000E+00 -3.60000000E+00 -3.60000000E+00
Nuclear ZNuc                               R   N=          18
  6.00000000E+00  6.00000000E+00  6.00000000E+00  6.00000000E+00  6.00000000E+00
  6.00000000E+00  6.00000000E+00  6.00000000E+00  6.00000000E+00  6.00000000E+00
  6.00000000E+00  6.00000000E+00  6.00000000E+00  6.00000000E+00  6.00000000E+00
  6.00000000E+00  6.00000000E+00  6.00000000E+00
Nuclear QMom                               R   N=          18
  0.00000000E+00  0.00000000E+00  0.00000000E+00  0.00000000E+00  0.00000000E+00
  0.00000000E+00  0.00000000E+00  0.00000000E+00  0.00000000E+00  0.00000000E+00
  0.00000000E+00  0.00000000E+00  0.00000000E+00  0.00000000E+00  0.00000000E+00
  0.00000000E+00  0.00000000E+00  0.00000000E+00
Nuclear GFac                               R   N=          18
  0.00000000E+00  0.00000000E+00  0.00000000E+00  0.00000000E+00  0.00000000E+00
  0.00000000E+00  0.00000000E+00  0.00000000E+00  0.00000000E+00  0.00000000E+00
  0.00000000E+00  0.00000000E+00  0.00000000E+00  0.00000000E+00  0.00000000E+00
  0.00000000E+00  0.00000000E+00  0.00000000E+00
MicOpt                                     I   N=          18
          -1          -1          -1          -1          -1          -1
          -1          -1          -1          -1          -1          -1
          -1          -1          -1          -1          -1          -1
Number of residues                         I                0
Number of secondary structures             I                0
Number of contracted shells                I               36
Number of primitive shells                 I              216
Pure/Cartesian d shells                    I                1
Pure/Cartesian f shells                    I                1
Highest angular momentum                   I                1
Largest degree of contraction              I                6
Shell types                                I   N=          36
           0          -1           0          -1           0          -1
           0          -1           0          -1           0          -1
           0          -1           0          -1           0          -1
           0          -1           0          -1           0          -1
           0          -1           0          -1           0          -1
           0          -1           0          -1           0          -1
Number of primitives per shell             I   N=          36
           6           6           6           6           6           6
           6           6           6           6           6           6
           6           6           6           6           6           6
           6           6           6           6           6           6
           6           6           6           6           6           6
           6           6           6           6           6           6
Shell to atom map                          I   N=          36
           1           1           2           2           3           3
           4           4           5           5           6           6
           7           7           8           8           9           9
          10          10          11          11          12          12
          13          13          14          14          15          15
          16          16          17          17          18          18
Primitive exponents                        R   N=         216
  7.42737049E+02  1.36180025E+02  3.80982635E+01  1.30877818E+01  5.08236865E+00
  2.09320008E+00  3.04972395E+01  6.03619960E+00  1.87604634E+00  7.21782647E-01
  3.13470695E-01  1.43686555E-01  7.42737049E+02  1.36180025E+02  3.80982635E+01
  1.30877818E+01  5.08236865E+00  2.09320008E+00  3.04972395E+01  6.03619960E+00
  1.87604634E+00  7.21782647E-01  3.13470695E-01  1.43686555E-01  7.42737049E+02
  1.36180025E+02  3.80982635E+01  1.30877818E+01  5.08236865E+00  2.09320008E+00
  3.04972395E+01  6.03619960E+00  1.87604634E+00  7.21782647E-01  3.13470695E-01
  1.43686555E-01  7.42737049E+02  1.36180025E+02  3.80982635E+01  1.30877818E+01
  5.08236865E+00  2.09320008E+00  3.04972395E+01  6.03619960E+00  1.87604634E+00
  7.21782647E-01  3.13470695E-01  1.43686555E-01  7.42737049E+02  1.36180025E+02
  3.80982635E+01  1.30877818E+01  5.08236865E+00  2.09320008E+00  3.04972395E+01
  6.03619960E+00  1.87604634E+00  7.21782647E-01  3.13470695E-01  1.43686555E-01
  7.42737049E+02  1.36180025E+02  3.80982635E+01  1.30877818E+01  5.08236865E+00
  2.09320008E+00  3.04972395E+01  6.03619960E+00  1.87604634E+00  7.21782647E-01
  3.13470695E-01  1.43686555E-01  7.42737049E+02  1.36180025E+02  3.80982635E+01
  1.30877818E+01  5.08236865E+00  2.09320008E+00  3.04972395E+01  6.03619960E+00
  1.87604634E+00  7.21782647E-01  3.13470695E-01  1.43686555E-01  7.42737049E+02
  1.36180025E+02  3.80982635E+01  1.30877818E+01  5.08236865E+00  2.09320008E+00
  3.04972395E+01  6.03619960E+00  1.87604634E+00  7.21782647E-01  3.13470695E-01
  1.43686555E-01  7.42737049E+02  1.36180025E+02  3.80982635E+01  1.30877818E+01
  5.08236865E+00  2.09320008E+00  3.04972395E+01  6.03619960E+00  1.87604634E+00
  7.21782647E-01  3.13470695E-01  1.43686555E-01  7.42737049E+02  1.36180025E+02
  3.80982635E+01  1.30877818E+01  5.08236865E+00  2.09320008E+00  3.04972395E+01
  6.03619960E+00  1.87604634E+00  7.21782647E-01  3.13470695E-01  1.43686555E-01
  7.42737049E+02  1.36180025E+02  3.80982635E+01  1.30877818E+01  5.08236865E+00
  2.09320008E+00  3.04972395E+01  6.03619960E+00  1.87604634E+00  7.21782647E-01
  3.13470695E-01  1.43686555E-01  7.42737049E+02  1.36180025E+02  3.80982635E+01
  1.30877818E+01  5.08236865E+00  2.09320008E+00  3.04972395E+01  6.03619960E+00
  1.87604634E+00  7.21782647E-01  3.13470695E-01  1.43686555E-01  7.42737049E+02
  1.36180025E+02  3.80982635E+01  1.30877818E+01  5.08236865E+00  2.09320008E+00
  3.04972395E+01  6.03619960E+00  1.87604634E+00  7.21782647E-01  3.13470695E-01
  1.43686555E-01  7.42737049E+02  1.36180025E+02  3.80982635E+01  1.30877818E+01
  5.08236865E+00  2.09320008E+00  3.04972395E+01  6.03619960E+00  1.87604634E+00
  7.21782647E-01  3.13470695E-01  1.43686555E-01  7.42737049E+02  1.36180025E+02
  3.80982635E+01  1.30877818E+01  5.08236865E+00  2.09320008E+00  3.04972395E+01
  6.03619960E+00  1.87604634E+00  7.21782647E-01  3.13470695E-01  1.43686555E-01
  7.42737049E+02  1.36180025E+02  3.80982635E+01  1.30877818E+01  5.08236865E+00
  2.09320008E+00  3.04972395E+01  6.03619960E+00  1.87604634E+00  7.21782647E-01
  3.13470695E-01  1.43686555E-01  7.42737049E+02  1.36180025E+02  3.80982635E+01
  1.30877818E+01  5.08236865E+00  2.09320008E+00  3.04972395E+01  6.03619960E+00
  1.87604634E+00  7.21782647E-01  3.13470695E-01  1.43686555E-01  7.42737049E+02
  1.36180025E+02  3.80982635E+01  1.30877818E+01  5.08236865E+00  2.09320008E+00
  3.04972395E+01  6.03619960E+00  1.87604634E+00  7.21782647E-01  3.13470695E-01
  1.43686555E-01
Contraction coefficients                   R   N=         216
  9.16359628E-03  4.93614929E-02  1.68538305E-01  3.70562800E-01  4.16491530E-01
  1.30334084E-01 -1.32527881E-02 -4.69917101E-02 -3.37853715E-02  2.50241786E-01
  5.95117253E-01  2.40706176E-01  9.16359628E-03  4.93614929E-02  1.68538305E-01
  3.70562800E-01  4.16491530E-01  1.30334084E-01 -1.32527881E-02 -4.69917101E-02
 -3.37853715E-02  2.50241786E-01  5.95117253E-01  2.40706176E-01  9.16359628E-03
  4.93614929E-02  1.68538305E-01  3.70562800E-01  4.16491530E-01  1.30334084E-01
 -1.32527881E-02 -4.69917101E-02 -3.37853715E-02  2.50241786E-01  5.95117253E-01
  2.40706176E-01  9.16359628E-03  4.93614929E-02  1.68538305E-01  3.70562800E-01
  4.16491530E-01  1.30334084E-01 -1.32527881E-02 -4.69917101E-02 -3.37853715E-02
  2.50241786E-01  5.95117253E-01  2.40706176E-01  9.16359628E-03  4.93614929E-02
  1.68538305E-01  3.70562800E-01  4.16491530E-01  1.30334084E-01 -1.32527881E-02
 -4.69917101E-02 -3.37853715E-02  2.50241786E-01  5.95117253E-01  2.40706176E-01
  9.16359628E-03  4.93614929E-02  1.68538305E-01  3.70562800E-01  4.16491530E-01
  1.30334084E-01 -1.32527881E-02 -4.69917101E-02 -3.37853715E-02  2.50241786E-01
  5.95117253E-01  2.40706176E-01  9.16359628E-03  4.93614929E-02  1.68538305E-01
  3.70562800E-01  4.16491530E-01  1.30334084E-01 -1.32527881E-02 -4.69917101E-02
 -3.37853715E-02  2.50241786E-01  5.95117253E-01  2.40706176E-01  9.16359628E-03
  4.93614929E-02  1.68538305E-01  3.70562800E-01  4.16491530E-01  1.30334084E-01
 -1.32527881E-02 -4.69917101E-02 -3.37853715E-02  2.50241786E-01  5.95117253E-01
  2.40706176E-01  9.16359628E-03  4.93614929E-02  1.68538305E-01  3.70562800E-01
  4.16491530E-01  1.30334084E-01 -1.32527881E-02 -4.69917101E-02 -3.37853715E-02
  2.50241786E-01  5.95117253E-01  2.40706176E-01  9.16359628E-03  4.93614929E-02
  1.68538305E-01  3.70562800E-01  4.16491530E-01  1.30334084E-01 -1.32527881E-02
 -4.69917101E-02 -3.37853715E-02  2.50241786E-01  5.95117253E-01  2.40706176E-01
  9.16359628E-03  4.93614929E-02  1.68538305E-01  3.70562800E-01  4.16491530E-01
  1.30334084E-01 -1.32527881E-02 -4.69917101E-02 -3.37853715E-02  2.50241786E-01
  5.95117253E-01  2.40706176E-01  9.16359628E-03  4.93614929E-02  1.68538305E-01
  3.70562800E-01  4.16491530E-01  1.30334084E-01 -1.32527881E-02 -4.69917101E-02
 -3.37853715E-02  2.50241786E-01  5.95117253E-01  2.40706176E-01  9.16359628E-03
  4.93614929E-02  1.68538305E-01  3.70562800E-01  4.16491530E-01  1.30334084E-01
 -1.32527881E-02 -4.69917101E-02 -3.37853715E-02  2.50241786E-01  5.95117253E-01
  2.40706176E-01  9.16359628E-03  4.93614929E-02  1.68538305E-01  3.70562800E-01
  4.16491530E-01  1.30334084E-01 -1.32527881E-02 -4.69917101E-02 -3.37853715E-02
  2.50241786E-01  5.95117253E-01  2.40706176E-01  9.16359628E-03  4.93614929E-02
  1.68538305E-01  3.70562800E-01  4.16491530E-01  1.30334084E-01 -1.32527881E-02
 -4.69917101E-02 -3.37853715E-02  2.50241786E-01  5.95117253E-01  2.40706176E-01
  9.16359628E-03  4.93614929E-02  1.68538305E-01  3.70562800E-01  4.16491530E-01
  1.30334084E-01 -1.32527881E-02 -4.69917101E-02 -3.37853715E-02  2.50241786E-01
  5.95117253E-01  2.40706176E-01  9.16359628E-03  4.93614929E-02  1.68538305E-01
  3.70562800E-01  4.16491530E-01  1.30334084E-01 -1.32527881E-02 -4.69917101E-02
 -3.37853715E-02  2.50241786E-01  5.95117253E-01  2.40706176E-01  9.16359628E-03
  4.93614929E-02  1.68538305E-01  3.70562800E-01  4.16491530E-01  1.30334084E-01
 -1.32527881E-02 -4.69917101E-02 -3.37853715E-02  2.50241786E-01  5.95117253E-01
  2.40706176E-01
P(S=P) Contraction coefficients            R   N=         216
  0.00000000E+00  0.00000000E+00  0.00000000E+00  0.00000000E+00  0.00000000E+00
  0.00000000E+00  3.75969662E-03  3.76793698E-02  1.73896744E-01  4.18036435E-01
  4.25859548E-01  1.01708296E-01  0.00000000E+00  0.00000000E+00  0.00000000E+00
  0.00000000E+00  0.00000000E+00  0.00000000E+00  3.75969662E-03  3.76793698E-02
  1.73896744E-01  4.18036435E-01  4.25859548E-01  1.01708296E-01  0.00000000E+00
  0.00000000E+00  0.00000000E+00  0.00000000E+00  0.00000000E+00  0.00000000E+00
  3.75969662E-03  3.76793698E-02  1.73896744E-01  4.18036435E-01  4.25859548E-01
  1.01708296E-01  0.00000000E+00  0.00000000E+00  0.00000000E+00  0.00000000E+00
  0.00000000E+00  0.00000000E+00  3.75969662E-03  3.76793698E-02  1.73896744E-01
  4.18036435E-01  4.25859548E-01  1.01708296E-01  0.00000000E+00  0.00000000E+00
  0.00000000E+00  0.00000000E+00  0.00000000E+00  0.00000000E+00  3.75969662E-03
  3.76793698E-02  1.73896744E-01  4.18036435E-01  4.25859548E-01  1.01708296E-01
  0.00000000E+00  0.00000000E+00  0.00000000E+00  0.00000000E+00  0.00000000E+00
  0.00000000E+00  3.75969662E-03  3.76793698E-02  1.73896744E-01  4.18036435E-01
  4.25859548E-01  1.01708296E-01  0.00000000E+00  0.00000000E+00  0.00000000E+00
  0.00000000E+00  0.00000000E+00  0.00000000E+00  3.75969662E-03  3.76793698E-02
  1.73896744E-01  4.18036435E-01  4.25859548E-01  1.01708296E-01  0.00000000E+00
  0.00000000E+00  0.00000000E+00  0.00000000E+00  0.00000000E+00  0.00000000E+00
  3.75969662E-03  3.76793698E-02  1.73896744E-01  4.18036435E-01  4.25859548E-01
  1.01708296E-01  0.00000000E+00  0.00000000E+00  0.00000000E+00  0.00000000E+00
  0.00000000E+00  0.00000000E+00  3.75969662E-03  3.76793698E-02  1.73896744E-01
  4.18036435E-01  4.25859548E-01  1.01708296E-01  0.00000000E+00  0.00000000E+00
  0.00000000E+00  0.00000000E+00  0.00000000E+00  0.00000000E+00  3.75969662E-03
  3.76793698E-02  1.73896744E-01  4.18036435E-01  4.25859548E-01  1.01708296E-01
  0.00000000E+00  0.00000000E+00  0.00000000E+00  0.00000000E+00  0.00000000E+00
  0.00000000E+00  3.75969662E-03  3.76793698E-02  1.73896744E-01  4.18036435E-01
  4.25859548E-01  1.01708296E-01  0.00000000E+00  0.00000000E+00  0.00000000E+00
  0.00000000E+00  0.00000000E+00  0.00000000E+00  3.75969662E-03  3.76793698E-02
  1.73896744E-01  4.18036435E-01  4.25859548E-01  1.01708296E-01  0.00000000E+00
  0.00000000E+00  0.00000000E+00  0.00000000E+00  0.00000000E+00  0.00000000E+00
  3.75969662E-03  3.76793698E-02  1.73896744E-01  4.18036435E-01  4.25859548E-01
  1.01708296E-01  0.00000000E+00  0.00000000E+00  0.00000000E+00  0.00000000E+00
  0.00000000E+00  0.00000000E+00  3.75969662E-03  3.76793698E-02  1.73896744E-01
  4.18036435E-01  4.25859548E-01  1.01708296E-01  0.00000000E+00  0.00000000E+00
  0.00000000E+00  0.00000000E+00  0.00000000E+00  0.00000000E+00  3.75969662E-03
  3.76793698E-02  1.73896744E-01  4.18036435E-01  4.25859548E-01  1.01708296E-01
  0.00000000E+00  0.00000000E+00  0.00000000E+00  0.00000000E+00  0.00000000E+00
  0.00000000E+00  3.75969662E-03  3.76793698E-02  1.73896744E-01  4.18036435E-01
  4.25859548E-01  1.01708296E-01  0.00000000E+00  0.00000000E+00  0.00000000E+00
  0.00000000E+00  0.00000000E+00  0.00000000E+00  3.75969662E-03  3.76793698E-02
  1.73896744E-01  4.18036435E-01  4.25859548E-01  1.01708296E-01  0.00000000E+00
  0.00000000E+00  0.00000000E+00  0.00000000E+00  0.00000000E+00  0.00000000E+00
  3.75969662E-03  3.76793698E-02  1.73896744E-01  4.18036435E-01  4.25859548E-01
  1.01708296E-01
Coordinates of each shell                  R   N=         108
  1.15387142E+00  6.88233765E+00  0.00000000E+00  1.15387142E+00  6.88233765E+00
  0.00000000E+00 -1.15387142E+00  6.88233765E+00  0.00000000E+00 -1.15387142E+00
  6.88233765E+00  0.00000000E+00 -3.53996457E+00  6.01387077E+00  0.00000000E+00
 -3.53996457E+00  6.01387077E+00  0.00000000E+00 -5.30779815E+00  4.53048225E+00
  0.00000000E+00 -5.30779815E+00  4.53048225E+00  0.00000000E+00 -6.57741180E+00
  2.33144692E+00  0.00000000E+00 -6.57741180E+00  2.33144692E+00  0.00000000E+00
 -6.97814714E+00  5.87638684E-02  0.00000000E+00 -6.97814714E+00  5.87638684E-02
  0.00000000E+00 -6.53721494E+00 -2.44188686E+00  0.00000000E+00 -6.53721494E+00
 -2.44188686E+00  0.00000000E+00 -5.38334352E+00 -4.44045078E+00  0.00000000E+00
 -5.38334352E+00 -4.44045078E+00  0.00000000E+00 -3.43818256E+00 -6.07263462E+00
  0.00000000E+00 -3.43818256E+00 -6.07263462E+00  0.00000000E+00 -1.26961365E+00
 -6.86192917E+00  0.00000000E+00 -1.26961365E+00 -6.86192917E+00  0.00000000E+00
  1.26961365E+00 -6.86192917E+00  0.00000000E+00  1.26961365E+00 -6.86192917E+00
  0.00000000E+00  3.43818256E+00 -6.07263462E+00  0.00000000E+00  3.43818256E+00
 -6.07263462E+00  0.00000000E+00  5.38334352E+00 -4.44045078E+00  0.00000000E+00
  5.38334352E+00 -4.44045078E+00  0.00000000E+00  6.53721494E+00 -2.44188686E+00
  0.00000000E+00  6.53721494E+00 -2.44188686E+00  0.00000000E+00  6.97814714E+00
  5.87638684E-02  0.00000000E+00  6.97814714E+00  5.87638684E-02  0.00000000E+00
  6.57741180E+00  2.33144692E+00  0.00000000E+00  6.57741180E+00  2.33144692E+00
  0.00000000E+00  5.30779815E+00  4.53048225E+00  0.00000000E+00  5.30779815E+00
  4.53048225E+00  0.00000000E+00  3.53996457E+00  6.01387077E+00  0.00000000E+00
  3.53996457E+00  6.01387077E+00  0.00000000E+00
Num ILSW                                   I              100
ILSW                                       I   N=         100
           0           1           0           0           2           1
           0           0           0           0           0          -1
           5           0           0           1           0           0
           0           0           0           0           0           0
           1           1           0           0           0           0
           0           0      100000           0          -1           0
           0           0           0           0           0           0
           0           0           0           1           0           0
           0 -2000000000           1           0           0           0
           0           0           4          52           0           0
           0           0           0           0           0           0
           0           0           0          18           0           1
           0           0           0           0           0           0
           0           0           0           0           0           0
           0           0           0           0           0           0
           0           0           0           0           0           0
           0           0           0           0
Num RLSW                                   I               52
RLSW                                       R   N=          52
  1.00000000E+00  1.00000000E+00  1.00000000E+00  1.00000000E+00  1.00000000E+00
  0.00000000E+00  0.00000000E+00  1.00000000E+00  0.00000000E+00  0.00000000E+00
  0.00000000E+00  0.00000000E+00  1.00000000E+00  0.00000000E+00  0.00000000E+00
  0.00000000E+00  0.00000000E+00  1.00000000E+00  0.00000000E+00  0.00000000E+00
  0.00000000E+00  0.00000000E+00  1.00000000E+00  0.00000000E+00  0.00000000E+00
  0.00000000E+00  0.00000000E+00  1.00000000E+00  0.00000000E+00  0.00000000E+00
  0.00000000E+00  0.00000000E+00  1.00000000E+00  0.00000000E+00  0.00000000E+00
  0.00000000E+00  0.00000000E+00  0.00000000E+00  1.00000000E+00  1.00000000E+00
  0.00000000E+00  1.00000000E+00  0.00000000E+00  0.00000000E+00  0.00000000E+00
  0.00000000E+00  0.00000000E+00  0.00000000E+00  0.00000000E+00  0.00000000E+00
  0.00000000E+00  0.00000000E+00
MxBond                                     I                2
NBond                                      I   N=          18
           2           2           2           2           2           2
           2           2           2           2           2           2
           2           2           2           2           2           2
IBond                                      I   N=          36
           2          18           1           3           2           4
           3           5           4           6           5           7
           6           8           7           9           8          10
           9          11          10          12          11          13
          12          14          13          15          14          16
          15          17          16          18           1          17
RBond                                      R   N=          36
  3.00000000E+00  2.00000000E+00  3.00000000E+00  2.00000000E+00  2.00000000E+00
  3.00000000E+00  3.00000000E+00  2.00000000E+00  2.00000000E+00  3.00000000E+00
  3.00000000E+00  2.00000000E+00  2.00000000E+00  3.00000000E+00  3.00000000E+00
  2.00000000E+00  2.00000000E+00  3.00000000E+00  3.00000000E+00  2.00000000E+00
  2.00000000E+00  3.00000000E+00  3.00000000E+00  2.00000000E+00  2.00000000E+00
  3.00000000E+00  3.00000000E+00  2.00000000E+00  2.00000000E+00  3.00000000E+00
  3.00000000E+00  2.00000000E+00  2.00000000E+00  3.00000000E+00  2.00000000E+00
  3.00000000E+00
Virial Ratio                               R      1.998058413710436E+00
SCF Energy                                 R     -6.794070194065199E+02
Total Energy                               R     -6.794070194065199E+02
S**2                                       R      6.380357895922820E+00
S**2 after annihilation                    R      2.287813433785658E+01
RMS Density                                R      5.994794391252265E-09
Job Status                                 I                1
Nuclear derivative order                   I                0
External E-field                           R   N=          35
  0.00000000E+00  0.00000000E+00  0.00000000E+00  0.00000000E+00  0.00000000E+00
  0.00000000E+00  0.00000000E+00  0.00000000E+00  0.00000000E+00  0.00000000E+00
  0.00000000E+00  0.00000000E+00  0.00000000E+00  0.00000000E+00  0.00000000E+00
  0.00000000E+00  0.00000000E+00  0.00000000E+00  0.00000000E+00  0.00000000E+00
  0.00000000E+00  0.00000000E+00  0.00000000E+00  0.00000000E+00  0.00000000E+00
  0.00000000E+00  0.00000000E+00  0.00000000E+00  0.00000000E+00  0.00000000E+00
  0.00000000E+00  0.00000000E+00  0.00000000E+00  0.00000000E+00  0.00000000E+00
IOpCl                                      I                0
IROHF                                      I                0
Alpha Orbital Energies                     R   N=          90
 -1.12261530E+01 -1.12261463E+01 -1.12261462E+01 -1.12261299E+01 -1.12261299E+01
 -1.12261131E+01 -1.12261131E+01 -1.12261039E+01 -1.12261039E+01 -1.11876755E+01
 -1.11876743E+01 -1.11876743E+01 -1.11876710E+01 -1.11876709E+01 -1.11876660E+01
 -1.11876660E+01 -1.11876615E+01 -1.11876615E+01 -1.07965141E+00 -1.07094549E+00
 -1.07094545E+00 -1.04578710E+00 -1.04578709E+00 -1.00797032E+00 -1.00797032E+00
 -9.70261613E-01 -9.70261607E-01 -8.22295428E-01 -8.22295421E-01 -7.72611190E-01
 -7.72611187E-01 -7.14346762E-01 -7.14346745E-01 -6.68503168E-01 -6.68503130E-01
 -6.50586660E-01 -5.27698855E-01 -5.24052202E-01 -5.11267306E-01 -5.11267275E-01
 -5.08621700E-01 -5.08621668E-01 -4.64222772E-01 -4.64222757E-01 -4.63104478E-01
 -4.63104464E-01 -3.92727861E-01 -3.92727858E-01 -3.92702585E-01 -3.92702582E-01
 -3.23405808E-01 -3.23405800E-01 -3.23028826E-01 -3.23028817E-01  2.13482840E-01
  2.13482849E-01  2.26934987E-01  2.26934996E-01  3.24569973E-01  3.24569975E-01
  3.28889405E-01  3.28889407E-01  3.91846621E-01  4.01591675E-01  4.01591695E-01
  4.02336716E-01  4.02336752E-01  4.75530995E-01  4.75531012E-01  5.94514379E-01
  5.94514413E-01  6.40808409E-01  7.26554749E-01  7.26554769E-01  7.48858934E-01
  7.48858938E-01  7.85269234E-01  7.85269271E-01  8.21361946E-01  8.36199849E-01
  8.36199859E-01  1.10430024E+00  1.10430024E+00  1.27042018E+00  1.27042018E+00
  1.46491279E+00  1.46491281E+00  1.62455417E+00  1.62455421E+00  1.68766530E+00
Alpha MO coefficients                      R   N=        8100
  2.34969126E-01  2.19492057E-03 -6.98919131E-04 -3.78290213E-04  0.00000000E+00
  2.34722969E-01  2.19135389E-03  6.95872778E-04 -3.78473428E-04  0.00000000E+00
  2.34500414E-01  2.18817707E-03 -2.91646747E-04 -7.37409606E-04  0.00000000E+00
  2.34536082E-01  2.18861995E-03  7.77142043E-04  1.59517572E-04  0.00000000E+00
  2.34814074E-01  2.19241234E-03  2.52012271E-04 -7.51053532E-04  0.00000000E+00
  2.35090595E-01  2.19506368E-03  4.94084590E-04  6.23798306E-04  0.00000000E+00
  2.35365025E-01  2.19927778E-03  6.77910965E-04 -4.15037433E-04  0.00000000E+00
  2.35303328E-01  2.19927966E-03 -1.96815082E-05  7.93535609E-04  0.00000000E+00
  2.34799966E-01  2.19099424E-03  7.86850619E-04  1.15187427E-04  0.00000000E+00
  2.34555827E-01  2.18813684E-03 -5.25400063E-04  5.93124934E-04  0.00000000E+00
  2.34667920E-01  2.18994094E-03  5.24565482E-04  5.93438445E-04  0.00000000E+00
  2.34972509E-01  2.19467614E-03 -7.86629666E-04  1.16072426E-04  0.00000000E+00
  2.35145856E-01  2.19714189E-03  2.09551859E-05  7.94247750E-04  0.00000000E+00
  2.35014520E-01  2.19511680E-03 -6.76643736E-04 -4.13923594E-04  0.00000000E+00
  2.34699006E-01  2.19016780E-03 -4.93066136E-04  6.22560820E-04  0.00000000E+00
  2.34602560E-01  2.18877168E-03 -2.50690490E-04 -7.52469980E-04  0.00000000E+00
  2.34822983E-01  2.19253064E-03 -7.76778497E-04  1.57507047E-04  0.00000000E+00
  2.35022339E-01  2.19573496E-03  2.91823806E-04 -7.39031651E-04  0.00000000E+00
 -1.50120726E-01 -8.06496286E-04  1.00377394E-03  8.46013888E-05  0.00000000E+00
 -1.14343561E-01 -1.93513259E-03  4.13656953E-04  4.21486277E-04  0.00000000E+00
  7.55619512E-02  1.56786342E-03  6.35341493E-04  6.79319809E-05  0.00000000E+00
  1.12883281E-01  3.84068718E-04  7.31764736E-04  6.09071875E-04  0.00000000E+00
  2.66013107E-01  3.20777058E-03  5.88366802E-04 -2.97114952E-04  0.00000000E+00
  2.87775312E-01  2.53107755E-03  6.03346967E-04  9.56561748E-04  0.00000000E+00
  3.32313767E-01  3.35204383E-03  9.41504363E-04 -4.09218014E-04  0.00000000E+00