Title section
Stability RHF                                                         6-31G
Number of atoms                            I               40
Info1-9                                    I   N=           9
          51          50           0           0           0         110
           7           1           2
Full Title                                 C   N=           2
Title section
Route                                      C   N=          11
#p int=(nobasistransform) nosymm pop=full punch=gamessinput
gfprint uhf/6-31g 6D 10F guess=mix SCF=(xqc, maxcycle=500) s
table=opt
Charge                                     I                0
Multiplicity                               I                1
Number of electrons                        I               40
Number of alpha electrons                  I               20
Number of beta electrons                   I               20
Number of basis functions                  I               80
Number of independent functions            I               80
Number of point charges in /Mol/           I                0
Number of translation vectors              I                0
Atomic numbers                             I   N=          40
           1           1           1           1           1           1
           1           1           1           1           1           1
           1           1           1           1           1           1
           1           1           1           1           1           1
           1           1           1           1           1           1
           1           1           1           1           1           1
           1           1           1           1
Nuclear charges                            R   N=          40
  1.00000000E+00  1.00000000E+00  1.00000000E+00  1.00000000E+00  1.00000000E+00
  1.00000000E+00  1.00000000E+00  1.00000000E+00  1.00000000E+00  1.00000000E+00
  1.00000000E+00  1.00000000E+00  1.00000000E+00  1.00000000E+00  1.00000000E+00
  1.00000000E+00  1.00000000E+00  1.00000000E+00  1.00000000E+00  1.00000000E+00
  1.00000000E+00  1.00000000E+00  1.00000000E+00  1.00000000E+00  1.00000000E+00
  1.00000000E+00  1.00000000E+00  1.00000000E+00  1.00000000E+00  1.00000000E+00
  1.00000000E+00  1.00000000E+00  1.00000000E+00  1.00000000E+00  1.00000000E+00
  1.00000000E+00  1.00000000E+00  1.00000000E+00  1.00000000E+00  1.00000000E+00
Current cartesian coordinates              R   N=         120
  0.00000000E+00  0.00000000E+00 -3.21253441E+01  0.00000000E+00  0.00000000E+00
 -3.05190769E+01  0.00000000E+00  0.00000000E+00 -2.89128097E+01  0.00000000E+00
  0.00000000E+00 -2.73065425E+01  0.00000000E+00  0.00000000E+00 -2.57002753E+01
  0.00000000E+00  0.00000000E+00 -2.40940081E+01  0.00000000E+00  0.00000000E+00
 -2.24877409E+01  0.00000000E+00  0.00000000E+00 -2.08814737E+01  0.00000000E+00
  0.00000000E+00 -1.92752065E+01  0.00000000E+00  0.00000000E+00 -1.76689393E+01
  0.00000000E+00  0.00000000E+00 -1.60626721E+01  0.00000000E+00  0.00000000E+00
 -1.44564049E+01  0.00000000E+00  0.00000000E+00 -1.28501376E+01  0.00000000E+00
  0.00000000E+00 -1.12438704E+01  0.00000000E+00  0.00000000E+00 -9.63760324E+00
  0.00000000E+00  0.00000000E+00 -8.03133603E+00  0.00000000E+00  0.00000000E+00
 -6.42506882E+00  0.00000000E+00  0.00000000E+00 -4.81880162E+00  0.00000000E+00
  0.00000000E+00 -3.21253441E+00  0.00000000E+00  0.00000000E+00 -1.60626721E+00
  0.00000000E+00  0.00000000E+00  0.00000000E+00  0.00000000E+00  0.00000000E+00
  1.60626721E+00  0.00000000E+00  0.00000000E+00  3.21253441E+00  0.00000000E+00
  0.00000000E+00  4.81880162E+00  0.00000000E+00  0.00000000E+00  6.42506882E+00
  0.00000000E+00  0.00000000E+00  8.03133603E+00  0.00000000E+00  0.00000000E+00
  9.63760324E+00  0.00000000E+00  0.00000000E+00  1.12438704E+01  0.00000000E+00
  0.00000000E+00  1.28501376E+01  0.00000000E+00  0.00000000E+00  1.44564049E+01
  0.00000000E+00  0.00000000E+00  1.60626721E+01  0.00000000E+00  0.00000000E+00
  1.76689393E+01  0.00000000E+00  0.00000000E+00  1.92752065E+01  0.00000000E+00
  0.00000000E+00  2.08814737E+01  0.00000000E+00  0.00000000E+00  2.24877409E+01
  0.00000000E+00  0.00000000E+00  2.40940081E+01  0.00000000E+00  0.00000000E+00
  2.57002753E+01  0.00000000E+00  0.00000000E+00  2.73065425E+01  0.00000000E+00
  0.00000000E+00  2.89128097E+01  0.00000000E+00  0.00000000E+00  3.05190769E+01
Number of symbols in /Mol/                 I                0
Force Field                                I                0
Atom Types                                 C   N=          40








Int Atom Types                             I   N=          40
           0           0           0           0           0           0
           0           0           0           0           0           0
           0           0           0           0           0           0
           0           0           0           0           0           0
           0           0           0           0           0           0
           0           0           0           0           0           0
           0           0           0           0
MM charges                                 R   N=          40
  0.00000000E+00  0.00000000E+00  0.00000000E+00  0.00000000E+00  0.00000000E+00
  0.00000000E+00  0.00000000E+00  0.00000000E+00  0.00000000E+00  0.00000000E+00
  0.00000000E+00  0.00000000E+00  0.00000000E+00  0.00000000E+00  0.00000000E+00
  0.00000000E+00  0.00000000E+00  0.00000000E+00  0.00000000E+00  0.00000000E+00
  0.00000000E+00  0.00000000E+00  0.00000000E+00  0.00000000E+00  0.00000000E+00
  0.00000000E+00  0.00000000E+00  0.00000000E+00  0.00000000E+00  0.00000000E+00
  0.00000000E+00  0.00000000E+00  0.00000000E+00  0.00000000E+00  0.00000000E+00
  0.00000000E+00  0.00000000E+00  0.00000000E+00  0.00000000E+00  0.00000000E+00
Integer atomic weights                     I   N=          40
           1           1           1           1           1           1
           1           1           1           1           1           1
           1           1           1           1           1           1
           1           1           1           1           1           1
           1           1           1           1           1           1
           1           1           1           1           1           1
           1           1           1           1
Real atomic weights                        R   N=          40
  1.00782504E+00  1.00782504E+00  1.00782504E+00  1.00782504E+00  1.00782504E+00
  1.00782504E+00  1.00782504E+00  1.00782504E+00  1.00782504E+00  1.00782504E+00
  1.00782504E+00  1.00782504E+00  1.00782504E+00  1.00782504E+00  1.00782504E+00
  1.00782504E+00  1.00782504E+00  1.00782504E+00  1.00782504E+00  1.00782504E+00
  1.00782504E+00  1.00782504E+00  1.00782504E+00  1.00782504E+00  1.00782504E+00
  1.00782504E+00  1.00782504E+00  1.00782504E+00  1.00782504E+00  1.00782504E+00
  1.00782504E+00  1.00782504E+00  1.00782504E+00  1.00782504E+00  1.00782504E+00
  1.00782504E+00  1.00782504E+00  1.00782504E+00  1.00782504E+00  1.00782504E+00
Atom fragment info                         I   N=          40
           0           0           0           0           0           0
           0           0           0           0           0           0
           0           0           0           0           0           0
           0           0           0           0           0           0
           0           0           0           0           0           0
           0           0           0           0           0           0
           0           0           0           0
Atom residue num                           I   N=          40
           0           0           0           0           0           0
           0           0           0           0           0           0
           0           0           0           0           0           0
           0           0           0           0           0           0
           0           0           0           0           0           0
           0           0           0           0           0           0
           0           0           0           0
Nuclear spins                              I   N=          40
           1           1           1           1           1           1
           1           1           1           1           1           1
           1           1           1           1           1           1
           1           1           1           1           1           1
           1           1           1           1           1           1
           1           1           1           1           1           1
           1           1           1           1
Nuclear ZEff                               R   N=          40
 -1.00000000E+00 -1.00000000E+00 -1.00000000E+00 -1.00000000E+00 -1.00000000E+00
 -1.00000000E+00 -1.00000000E+00 -1.00000000E+00 -1.00000000E+00 -1.00000000E+00
 -1.00000000E+00 -1.00000000E+00 -1.00000000E+00 -1.00000000E+00 -1.00000000E+00
 -1.00000000E+00 -1.00000000E+00 -1.00000000E+00 -1.00000000E+00 -1.00000000E+00
 -1.00000000E+00 -1.00000000E+00 -1.00000000E+00 -1.00000000E+00 -1.00000000E+00
 -1.00000000E+00 -1.00000000E+00 -1.00000000E+00 -1.00000000E+00 -1.00000000E+00
 -1.00000000E+00 -1.00000000E+00 -1.00000000E+00 -1.00000000E+00 -1.00000000E+00
 -1.00000000E+00 -1.00000000E+00 -1.00000000E+00 -1.00000000E+00 -1.00000000E+00
Nuclear ZNuc                               R   N=          40
  1.00000000E+00  1.00000000E+00  1.00000000E+00  1.00000000E+00  1.00000000E+00
  1.00000000E+00  1.00000000E+00  1.00000000E+00  1.00000000E+00  1.00000000E+00
  1.00000000E+00  1.00000000E+00  1.00000000E+00  1.00000000E+00  1.00000000E+00
  1.00000000E+00  1.00000000E+00  1.00000000E+00  1.00000000E+00  1.00000000E+00
  1.00000000E+00  1.00000000E+00  1.00000000E+00  1.00000000E+00  1.00000000E+00
  1.00000000E+00  1.00000000E+00  1.00000000E+00  1.00000000E+00  1.00000000E+00
  1.00000000E+00  1.00000000E+00  1.00000000E+00  1.00000000E+00  1.00000000E+00
  1.00000000E+00  1.00000000E+00  1.00000000E+00  1.00000000E+00  1.00000000E+00
Nuclear QMom                               R   N=          40
  0.00000000E+00  0.00000000E+00  0.00000000E+00  0.00000000E+00  0.00000000E+00
  0.00000000E+00  0.00000000E+00  0.00000000E+00  0.00000000E+00  0.00000000E+00
  0.00000000E+00  0.00000000E+00  0.00000000E+00  0.00000000E+00  0.00000000E+00
  0.00000000E+00  0.00000000E+00  0.00000000E+00  0.00000000E+00  0.00000000E+00
  0.00000000E+00  0.00000000E+00  0.00000000E+00  0.00000000E+00  0.00000000E+00
  0.00000000E+00  0.00000000E+00  0.00000000E+00  0.00000000E+00  0.00000000E+00
  0.00000000E+00  0.00000000E+00  0.00000000E+00  0.00000000E+00  0.00000000E+00
  0.00000000E+00  0.00000000E+00  0.00000000E+00  0.00000000E+00  0.00000000E+00
Nuclear GFac                               R   N=          40
  2.79284600E+00  2.79284600E+00  2.79284600E+00  2.79284600E+00  2.79284600E+00
  2.79284600E+00  2.79284600E+00  2.79284600E+00  2.79284600E+00  2.79284600E+00
  2.79284600E+00  2.79284600E+00  2.79284600E+00  2.79284600E+00  2.79284600E+00
  2.79284600E+00  2.79284600E+00  2.79284600E+00  2.79284600E+00  2.79284600E+00
  2.79284600E+00  2.79284600E+00  2.79284600E+00  2.79284600E+00  2.79284600E+00
  2.79284600E+00  2.79284600E+00  2.79284600E+00  2.79284600E+00  2.79284600E+00
  2.79284600E+00  2.79284600E+00  2.79284600E+00  2.79284600E+00  2.79284600E+00
  2.79284600E+00  2.79284600E+00  2.79284600E+00  2.79284600E+00  2.79284600E+00
MicOpt                                     I   N=          40
          -1          -1          -1          -1          -1          -1
          -1          -1          -1          -1          -1          -1
          -1          -1          -1          -1          -1          -1
          -1          -1          -1          -1          -1          -1
          -1          -1          -1          -1          -1          -1
          -1          -1          -1          -1          -1          -1
          -1          -1          -1          -1
Number of residues                         I                0
Number of secondary structures             I                0
Number of contracted shells                I               80
Number of primitive shells                 I              160
Pure/Cartesian d shells                    I                1
Pure/Cartesian f shells                    I                1
Highest angular momentum                   I                0
Largest degree of contraction              I                3
Shell types                                I   N=          80
           0           0           0           0           0           0
           0           0           0           0           0           0
           0           0           0           0           0           0
           0           0           0           0           0           0
           0           0           0           0           0           0
           0           0           0           0           0           0
           0           0           0           0           0           0
           0           0           0           0           0           0
           0           0           0           0           0           0
           0           0           0           0           0           0
           0           0           0           0           0           0
           0           0           0           0           0           0
           0           0           0           0           0           0
           0           0
Number of primitives per shell             I   N=          80
           3           1           3           1           3           1
           3           1           3           1           3           1
           3           1           3           1           3           1
           3           1           3           1           3           1
           3           1           3           1           3           1
           3           1           3           1           3           1
           3           1           3           1           3           1
           3           1           3           1           3           1
           3           1           3           1           3           1
           3           1           3           1           3           1
           3           1           3           1           3           1
           3           1           3           1           3           1
           3           1           3           1           3           1
           3           1
Shell to atom map                          I   N=          80
           1           1           2           2           3           3
           4           4           5           5           6           6
           7           7           8           8           9           9
          10          10          11          11          12          12
          13          13          14          14          15          15
          16          16          17          17          18          18
          19          19          20          20          21          21
          22          22          23          23          24          24
          25          25          26          26          27          27
          28          28          29          29          30          30
          31          31          32          32          33          33
          34          34          35          35          36          36
          37          37          38          38          39          39
          40          40
Primitive exponents                        R   N=         160
  1.87311370E+01  2.82539436E+00  6.40121692E-01  1.61277759E-01  1.87311370E+01
  2.82539436E+00  6.40121692E-01  1.61277759E-01  1.87311370E+01  2.82539436E+00
  6.40121692E-01  1.61277759E-01  1.87311370E+01  2.82539436E+00  6.40121692E-01
  1.61277759E-01  1.87311370E+01  2.82539436E+00  6.40121692E-01  1.61277759E-01
  1.87311370E+01  2.82539436E+00  6.40121692E-01  1.61277759E-01  1.87311370E+01
  2.82539436E+00  6.40121692E-01  1.61277759E-01  1.87311370E+01  2.82539436E+00
  6.40121692E-01  1.61277759E-01  1.87311370E+01  2.82539436E+00  6.40121692E-01
  1.61277759E-01  1.87311370E+01  2.82539436E+00  6.40121692E-01  1.61277759E-01
  1.87311370E+01  2.82539436E+00  6.40121692E-01  1.61277759E-01  1.87311370E+01
  2.82539436E+00  6.40121692E-01  1.61277759E-01  1.87311370E+01  2.82539436E+00
  6.40121692E-01  1.61277759E-01  1.87311370E+01  2.82539436E+00  6.40121692E-01
  1.61277759E-01  1.87311370E+01  2.82539436E+00  6.40121692E-01  1.61277759E-01
  1.87311370E+01  2.82539436E+00  6.40121692E-01  1.61277759E-01  1.87311370E+01
  2.82539436E+00  6.40121692E-01  1.61277759E-01  1.87311370E+01  2.82539436E+00
  6.40121692E-01  1.61277759E-01  1.87311370E+01  2.82539436E+00  6.40121692E-01
  1.61277759E-01  1.87311370E+01  2.82539436E+00  6.40121692E-01  1.61277759E-01
  1.87311370E+01  2.82539436E+00  6.40121692E-01  1.61277759E-01  1.87311370E+01
  2.82539436E+00  6.40121692E-01  1.61277759E-01  1.87311370E+01  2.82539436E+00
  6.40121692E-01  1.61277759E-01  1.87311370E+01  2.82539436E+00  6.40121692E-01
  1.61277759E-01  1.87311370E+01  2.82539436E+00  6.40121692E-01  1.61277759E-01
  1.87311370E+01  2.82539436E+00  6.40121692E-01  1.61277759E-01  1.87311370E+01
  2.82539436E+00  6.40121692E-01  1.61277759E-01  1.87311370E+01  2.82539436E+00
  6.40121692E-01  1.61277759E-01  1.87311370E+01  2.82539436E+00  6.40121692E-01
  1.61277759E-01  1.87311370E+01  2.82539436E+00  6.40121692E-01  1.61277759E-01
  1.87311370E+01  2.82539436E+00  6.40121692E-01  1.61277759E-01  1.87311370E+01
  2.82539436E+00  6.40121692E-01  1.61277759E-01  1.87311370E+01  2.82539436E+00
  6.40121692E-01  1.61277759E-01  1.87311370E+01  2.82539436E+00  6.40121692E-01
  1.61277759E-01  1.87311370E+01  2.82539436E+00  6.40121692E-01  1.61277759E-01
  1.87311370E+01  2.82539436E+00  6.40121692E-01  1.61277759E-01  1.87311370E+01
  2.82539436E+00  6.40121692E-01  1.61277759E-01  1.87311370E+01  2.82539436E+00
  6.40121692E-01  1.61277759E-01  1.87311370E+01  2.82539436E+00  6.40121692E-01
  1.61277759E-01  1.87311370E+01  2.82539436E+00  6.40121692E-01  1.61277759E-01
Contraction coefficients                   R   N=         160
  3.34946043E-02  2.34726953E-01  8.13757326E-01  1.00000000E+00  3.34946043E-02
  2.34726953E-01  8.13757326E-01  1.00000000E+00  3.34946043E-02  2.34726953E-01
  8.13757326E-01  1.00000000E+00  3.34946043E-02  2.34726953E-01  8.13757326E-01
  1.00000000E+00  3.34946043E-02  2.34726953E-01  8.13757326E-01  1.00000000E+00
  3.34946043E-02  2.34726953E-01  8.13757326E-01  1.00000000E+00  3.34946043E-02
  2.34726953E-01  8.13757326E-01  1.00000000E+00  3.34946043E-02  2.34726953E-01
  8.13757326E-01  1.00000000E+00  3.34946043E-02  2.34726953E-01  8.13757326E-01
  1.00000000E+00  3.34946043E-02  2.34726953E-01  8.13757326E-01  1.00000000E+00
  3.34946043E-02  2.34726953E-01  8.13757326E-01  1.00000000E+00  3.34946043E-02
  2.34726953E-01  8.13757326E-01  1.00000000E+00  3.34946043E-02  2.34726953E-01
  8.13757326E-01  1.00000000E+00  3.34946043E-02  2.34726953E-01  8.13757326E-01
  1.00000000E+00  3.34946043E-02  2.34726953E-01  8.13757326E-01  1.00000000E+00
  3.34946043E-02  2.34726953E-01  8.13757326E-01  1.00000000E+00  3.34946043E-02
  2.34726953E-01  8.13757326E-01  1.00000000E+00  3.34946043E-02  2.34726953E-01
  8.13757326E-01  1.00000000E+00  3.34946043E-02  2.34726953E-01  8.13757326E-01
  1.00000000E+00  3.34946043E-02  2.34726953E-01  8.13757326E-01  1.00000000E+00
  3.34946043E-02  2.34726953E-01  8.13757326E-01  1.00000000E+00  3.34946043E-02
  2.34726953E-01  8.13757326E-01  1.00000000E+00  3.34946043E-02  2.34726953E-01
  8.13757326E-01  1.00000000E+00  3.34946043E-02  2.34726953E-01  8.13757326E-01
  1.00000000E+00  3.34946043E-02  2.34726953E-01  8.13757326E-01  1.00000000E+00
  3.34946043E-02  2.34726953E-01  8.13757326E-01  1.00000000E+00  3.34946043E-02
  2.34726953E-01  8.13757326E-01  1.00000000E+00  3.34946043E-02  2.34726953E-01
  8.13757326E-01  1.00000000E+00  3.34946043E-02  2.34726953E-01  8.13757326E-01
  1.00000000E+00  3.34946043E-02  2.34726953E-01  8.13757326E-01  1.00000000E+00
  3.34946043E-02  2.34726953E-01  8.13757326E-01  1.00000000E+00  3.34946043E-02
  2.34726953E-01  8.13757326E-01  1.00000000E+00  3.34946043E-02  2.34726953E-01
  8.13757326E-01  1.00000000E+00  3.34946043E-02  2.34726953E-01  8.13757326E-01
  1.00000000E+00  3.34946043E-02  2.34726953E-01  8.13757326E-01  1.00000000E+00
  3.34946043E-02  2.34726953E-01  8.13757326E-01  1.00000000E+00  3.34946043E-02
  2.34726953E-01  8.13757326E-01  1.00000000E+00  3.34946043E-02  2.34726953E-01
  8.13757326E-01  1.00000000E+00  3.34946043E-02  2.34726953E-01  8.13757326E-01
  1.00000000E+00  3.34946043E-02  2.34726953E-01  8.13757326E-01  1.00000000E+00
Coordinates of each shell                  R   N=         240
  0.00000000E+00  0.00000000E+00 -3.21253441E+01  0.00000000E+00  0.00000000E+00
 -3.21253441E+01  0.00000000E+00  0.00000000E+00 -3.05190769E+01  0.00000000E+00
  0.00000000E+00 -3.05190769E+01  0.00000000E+00  0.00000000E+00 -2.89128097E+01
  0.00000000E+00  0.00000000E+00 -2.89128097E+01  0.00000000E+00  0.00000000E+00
 -2.73065425E+01  0.00000000E+00  0.00000000E+00 -2.73065425E+01  0.00000000E+00
  0.00000000E+00 -2.57002753E+01  0.00000000E+00  0.00000000E+00 -2.57002753E+01
  0.00000000E+00  0.00000000E+00 -2.40940081E+01  0.00000000E+00  0.00000000E+00
 -2.40940081E+01  0.00000000E+00  0.00000000E+00 -2.24877409E+01  0.00000000E+00
  0.00000000E+00 -2.24877409E+01  0.00000000E+00  0.00000000E+00 -2.08814737E+01
  0.00000000E+00  0.00000000E+00 -2.08814737E+01  0.00000000E+00  0.00000000E+00
 -1.92752065E+01  0.00000000E+00  0.00000000E+00 -1.92752065E+01  0.00000000E+00
  0.00000000E+00 -1.76689393E+01  0.00000000E+00  0.00000000E+00 -1.76689393E+01
  0.00000000E+00  0.00000000E+00 -1.60626721E+01  0.00000000E+00  0.00000000E+00
 -1.60626721E+01  0.00000000E+00  0.00000000E+00 -1.44564049E+01  0.00000000E+00
  0.00000000E+00 -1.44564049E+01  0.00000000E+00  0.00000000E+00 -1.28501376E+01
  0.00000000E+00  0.00000000E+00 -1.28501376E+01  0.00000000E+00  0.00000000E+00
 -1.12438704E+01  0.00000000E+00  0.00000000E+00 -1.12438704E+01  0.00000000E+00
  0.00000000E+00 -9.63760324E+00  0.00000000E+00  0.00000000E+00 -9.63760324E+00
  0.00000000E+00  0.00000000E+00 -8.03133603E+00  0.00000000E+00  0.00000000E+00
 -8.03133603E+00  0.00000000E+00  0.00000000E+00 -6.42506882E+00  0.00000000E+00
  0.00000000E+00 -6.42506882E+00  0.00000000E+00  0.00000000E+00 -4.81880162E+00
  0.00000000E+00  0.00000000E+00 -4.81880162E+00  0.00000000E+00  0.00000000E+00
 -3.21253441E+00  0.00000000E+00  0.00000000E+00 -3.21253441E+00  0.00000000E+00
  0.00000000E+00 -1.60626721E+00  0.00000000E+00  0.00000000E+00 -1.60626721E+00
  0.00000000E+00  0.00000000E+00  0.00000000E+00  0.00000000E+00  0.00000000E+00
  0.00000000E+00  0.00000000E+00  0.00000000E+00  1.60626721E+00  0.00000000E+00
  0.00000000E+00  1.60626721E+00  0.00000000E+00  0.00000000E+00  3.21253441E+00
  0.00000000E+00  0.00000000E+00  3.21253441E+00  0.00000000E+00  0.00000000E+00
  4.81880162E+00  0.00000000E+00  0.00000000E+00  4.81880162E+00  0.00000000E+00
  0.00000000E+00  6.42506882E+00  0.00000000E+00  0.00000000E+00  6.42506882E+00
  0.00000000E+00  0.00000000E+00  8.03133603E+00  0.00000000E+00  0.00000000E+00
  8.03133603E+00  0.00000000E+00  0.00000000E+00  9.63760324E+00  0.00000000E+00
  0.00000000E+00  9.63760324E+00  0.00000000E+00  0.00000000E+00  1.12438704E+01
  0.00000000E+00  0.00000000E+00  1.12438704E+01  0.00000000E+00  0.00000000E+00
  1.28501376E+01  0.00000000E+00  0.00000000E+00  1.28501376E+01  0.00000000E+00
  0.00000000E+00  1.44564049E+01  0.00000000E+00  0.00000000E+00  1.44564049E+01
  0.00000000E+00  0.00000000E+00  1.60626721E+01  0.00000000E+00  0.00000000E+00
  1.60626721E+01  0.00000000E+00  0.00000000E+00  1.76689393E+01  0.00000000E+00
  0.00000000E+00  1.76689393E+01  0.00000000E+00  0.00000000E+00  1.92752065E+01
  0.00000000E+00  0.00000000E+00  1.92752065E+01  0.00000000E+00  0.00000000E+00
  2.08814737E+01  0.00000000E+00  0.00000000E+00  2.08814737E+01  0.00000000E+00
  0.00000000E+00  2.24877409E+01  0.00000000E+00  0.00000000E+00  2.24877409E+01
  0.00000000E+00  0.00000000E+00  2.40940081E+01  0.00000000E+00  0.00000000E+00
  2.40940081E+01  0.00000000E+00  0.00000000E+00  2.57002753E+01  0.00000000E+00
  0.00000000E+00  2.57002753E+01  0.00000000E+00  0.00000000E+00  2.73065425E+01
  0.00000000E+00  0.00000000E+00  2.73065425E+01  0.00000000E+00  0.00000000E+00
  2.89128097E+01  0.00000000E+00  0.00000000E+00  2.89128097E+01  0.00000000E+00
  0.00000000E+00  3.05190769E+01  0.00000000E+00  0.00000000E+00  3.05190769E+01
Num ILSW                                   I              100
ILSW                                       I   N=         100
           0           1           0           0           2           1
           0           0           0           0           0          -1
           5           0           0           1           0           0
           0           0           0           0           0           0
           1           1           0           0           0           0
           0           0      100000           0          -1           0
           0           0           0           0           0           0
           0           0           0           1           0           0
           0 -2000000000           1           0           0           0
           0           0           4          52           0           0
           0           0           0           0           0           0
           0           0           0          40           0           1
           0           0           0           0           0           0
           0           0           0           0           0           0
           0           0           0           0           0           0
           0           0           0           0           0           0
           0           0           0           0
Num RLSW                                   I               52
RLSW                                       R   N=          52
  1.00000000E+00  1.00000000E+00  1.00000000E+00  1.00000000E+00  1.00000000E+00
  0.00000000E+00  0.00000000E+00  1.00000000E+00  0.00000000E+00  0.00000000E+00
  0.00000000E+00  0.00000000E+00  1.00000000E+00  0.00000000E+00  0.00000000E+00
  0.00000000E+00  0.00000000E+00  1.00000000E+00  0.00000000E+00  0.00000000E+00
  0.00000000E+00  0.00000000E+00  1.00000000E+00  0.00000000E+00  0.00000000E+00
  0.00000000E+00  0.00000000E+00  1.00000000E+00  0.00000000E+00  0.00000000E+00
  0.00000000E+00  0.00000000E+00  1.00000000E+00  0.00000000E+00  0.00000000E+00
  0.00000000E+00  0.00000000E+00  0.00000000E+00  1.00000000E+00  1.00000000E+00
  0.00000000E+00  1.00000000E+00  0.00000000E+00  0.00000000E+00  0.00000000E+00
  0.00000000E+00  0.00000000E+00  0.00000000E+00  0.00000000E+00  0.00000000E+00
  0.00000000E+00  0.00000000E+00
MxBond                                     I                2
NBond                                      I   N=          40
           1           2           2           2           2           2
           2           2           2           2           2           2
           2           2           2           2           2           2
           2           2           2           2           2           2
           2           2           2           2           2           2
           2           2           2           2           2           2
           2           2           2           1
IBond                                      I   N=          80
           2           0           1           3           2           4
           3           5           4           6           5           7
           6           8           7           9           8          10
           9          11          10          12          11          13
          12          14          13          15          14          16
          15          17          16          18          17          19
          18          20          19          21          20          22
          21          23          22          24          23          25
          24          26          25          27          26          28
          27          29          28          30          29          31
          30          32          31          33          32          34
          33          35          34          36          35          37
          36          38          37          39          38          40
          39           0
RBond                                      R   N=          80
  1.00000000E+00  0.00000000E+00  1.00000000E+00  1.00000000E+00  1.00000000E+00
  1.00000000E+00  1.00000000E+00  1.00000000E+00  1.00000000E+00  1.00000000E+00
  1.00000000E+00  1.00000000E+00  1.00000000E+00  1.00000000E+00  1.00000000E+00
  1.00000000E+00  1.00000000E+00  1.00000000E+00  1.00000000E+00  1.00000000E+00
  1.00000000E+00  1.00000000E+00  1.00000000E+00  1.00000000E+00  1.00000000E+00
  1.00000000E+00  1.00000000E+00  1.00000000E+00  1.00000000E+00  1.00000000E+00
  1.00000000E+00  1.00000000E+00  1.00000000E+00  1.00000000E+00  1.00000000E+00
  1.00000000E+00  1.00000000E+00  1.00000000E+00  1.00000000E+00  1.00000000E+00
  1.00000000E+00  1.00000000E+00  1.00000000E+00  1.00000000E+00  1.00000000E+00
  1.00000000E+00  1.00000000E+00  1.00000000E+00  1.00000000E+00  1.00000000E+00
  1.00000000E+00  1.00000000E+00  1.00000000E+00  1.00000000E+00  1.00000000E+00