Title section
Stability RHF                                                         STO-6G
Number of atoms                            I               40
Info1-9                                    I   N=           9
          51          50           0           0           0         110
           7           1           2
Full Title                                 C   N=           2
Title section
Route                                      C   N=          11
#p int=(nobasistransform) nosymm pop=full punch=gamessinput
gfprint uhf/sto-6g 6D 10F guess=mix SCF=(xqc, maxcycle=500)
stable=opt
Charge                                     I                0
Multiplicity                               I                1
Number of electrons                        I               40
Number of alpha electrons                  I               20
Number of beta electrons                   I               20
Number of basis functions                  I               40
Number of independent functions            I               40
Number of point charges in /Mol/           I                0
Number of translation vectors              I                0
Atomic numbers                             I   N=          40
           1           1           1           1           1           1
           1           1           1           1           1           1
           1           1           1           1           1           1
           1           1           1           1           1           1
           1           1           1           1           1           1
           1           1           1           1           1           1
           1           1           1           1
Nuclear charges                            R   N=          40
  1.00000000E+00  1.00000000E+00  1.00000000E+00  1.00000000E+00  1.00000000E+00
  1.00000000E+00  1.00000000E+00  1.00000000E+00  1.00000000E+00  1.00000000E+00
  1.00000000E+00  1.00000000E+00  1.00000000E+00  1.00000000E+00  1.00000000E+00
  1.00000000E+00  1.00000000E+00  1.00000000E+00  1.00000000E+00  1.00000000E+00
  1.00000000E+00  1.00000000E+00  1.00000000E+00  1.00000000E+00  1.00000000E+00
  1.00000000E+00  1.00000000E+00  1.00000000E+00  1.00000000E+00  1.00000000E+00
  1.00000000E+00  1.00000000E+00  1.00000000E+00  1.00000000E+00  1.00000000E+00
  1.00000000E+00  1.00000000E+00  1.00000000E+00  1.00000000E+00  1.00000000E+00
Current cartesian coordinates              R   N=         120
  0.00000000E+00  0.00000000E+00 -5.66917837E+01  0.00000000E+00  0.00000000E+00
 -5.38571946E+01  0.00000000E+00  0.00000000E+00 -5.10226054E+01  0.00000000E+00
  0.00000000E+00 -4.81880162E+01  0.00000000E+00  0.00000000E+00 -4.53534270E+01
  0.00000000E+00  0.00000000E+00 -4.25188378E+01  0.00000000E+00  0.00000000E+00
 -3.96842486E+01  0.00000000E+00  0.00000000E+00 -3.68496594E+01  0.00000000E+00
  0.00000000E+00 -3.40150702E+01  0.00000000E+00  0.00000000E+00 -3.11804811E+01
  0.00000000E+00  0.00000000E+00 -2.83458919E+01  0.00000000E+00  0.00000000E+00
 -2.55113027E+01  0.00000000E+00  0.00000000E+00 -2.26767135E+01  0.00000000E+00
  0.00000000E+00 -1.98421243E+01  0.00000000E+00  0.00000000E+00 -1.70075351E+01
  0.00000000E+00  0.00000000E+00 -1.41729459E+01  0.00000000E+00  0.00000000E+00
 -1.13383567E+01  0.00000000E+00  0.00000000E+00 -8.50376756E+00  0.00000000E+00
  0.00000000E+00 -5.66917837E+00  0.00000000E+00  0.00000000E+00 -2.83458919E+00
  0.00000000E+00  0.00000000E+00  0.00000000E+00  0.00000000E+00  0.00000000E+00
  2.83458919E+00  0.00000000E+00  0.00000000E+00  5.66917837E+00  0.00000000E+00
  0.00000000E+00  8.50376756E+00  0.00000000E+00  0.00000000E+00  1.13383567E+01
  0.00000000E+00  0.00000000E+00  1.41729459E+01  0.00000000E+00  0.00000000E+00
  1.70075351E+01  0.00000000E+00  0.00000000E+00  1.98421243E+01  0.00000000E+00
  0.00000000E+00  2.26767135E+01  0.00000000E+00  0.00000000E+00  2.55113027E+01
  0.00000000E+00  0.00000000E+00  2.83458919E+01  0.00000000E+00  0.00000000E+00
  3.11804811E+01  0.00000000E+00  0.00000000E+00  3.40150702E+01  0.00000000E+00
  0.00000000E+00  3.68496594E+01  0.00000000E+00  0.00000000E+00  3.96842486E+01
  0.00000000E+00  0.00000000E+00  4.25188378E+01  0.00000000E+00  0.00000000E+00
  4.53534270E+01  0.00000000E+00  0.00000000E+00  4.81880162E+01  0.00000000E+00
  0.00000000E+00  5.10226054E+01  0.00000000E+00  0.00000000E+00  5.38571946E+01
Number of symbols in /Mol/                 I                0
Force Field                                I                0
Atom Types                                 C   N=          40








Int Atom Types                             I   N=          40
           0           0           0           0           0           0
           0           0           0           0           0           0
           0           0           0           0           0           0
           0           0           0           0           0           0
           0           0           0           0           0           0
           0           0           0           0           0           0
           0           0           0           0
MM charges                                 R   N=          40
  0.00000000E+00  0.00000000E+00  0.00000000E+00  0.00000000E+00  0.00000000E+00
  0.00000000E+00  0.00000000E+00  0.00000000E+00  0.00000000E+00  0.00000000E+00
  0.00000000E+00  0.00000000E+00  0.00000000E+00  0.00000000E+00  0.00000000E+00
  0.00000000E+00  0.00000000E+00  0.00000000E+00  0.00000000E+00  0.00000000E+00
  0.00000000E+00  0.00000000E+00  0.00000000E+00  0.00000000E+00  0.00000000E+00
  0.00000000E+00  0.00000000E+00  0.00000000E+00  0.00000000E+00  0.00000000E+00
  0.00000000E+00  0.00000000E+00  0.00000000E+00  0.00000000E+00  0.00000000E+00
  0.00000000E+00  0.00000000E+00  0.00000000E+00  0.00000000E+00  0.00000000E+00
Integer atomic weights                     I   N=          40
           1           1           1           1           1           1
           1           1           1           1           1           1
           1           1           1           1           1           1
           1           1           1           1           1           1
           1           1           1           1           1           1
           1           1           1           1           1           1
           1           1           1           1
Real atomic weights                        R   N=          40
  1.00782504E+00  1.00782504E+00  1.00782504E+00  1.00782504E+00  1.00782504E+00
  1.00782504E+00  1.00782504E+00  1.00782504E+00  1.00782504E+00  1.00782504E+00
  1.00782504E+00  1.00782504E+00  1.00782504E+00  1.00782504E+00  1.00782504E+00
  1.00782504E+00  1.00782504E+00  1.00782504E+00  1.00782504E+00  1.00782504E+00
  1.00782504E+00  1.00782504E+00  1.00782504E+00  1.00782504E+00  1.00782504E+00
  1.00782504E+00  1.00782504E+00  1.00782504E+00  1.00782504E+00  1.00782504E+00
  1.00782504E+00  1.00782504E+00  1.00782504E+00  1.00782504E+00  1.00782504E+00
  1.00782504E+00  1.00782504E+00  1.00782504E+00  1.00782504E+00  1.00782504E+00
Atom fragment info                         I   N=          40
           0           0           0           0           0           0
           0           0           0           0           0           0
           0           0           0           0           0           0
           0           0           0           0           0           0
           0           0           0           0           0           0
           0           0           0           0           0           0
           0           0           0           0
Atom residue num                           I   N=          40
           0           0           0           0           0           0
           0           0           0           0           0           0
           0           0           0           0           0           0
           0           0           0           0           0           0
           0           0           0           0           0           0
           0           0           0           0           0           0
           0           0           0           0
Nuclear spins                              I   N=          40
           1           1           1           1           1           1
           1           1           1           1           1           1
           1           1           1           1           1           1
           1           1           1           1           1           1
           1           1           1           1           1           1
           1           1           1           1           1           1
           1           1           1           1
Nuclear ZEff                               R   N=          40
 -1.00000000E+00 -1.00000000E+00 -1.00000000E+00 -1.00000000E+00 -1.00000000E+00
 -1.00000000E+00 -1.00000000E+00 -1.00000000E+00 -1.00000000E+00 -1.00000000E+00
 -1.00000000E+00 -1.00000000E+00 -1.00000000E+00 -1.00000000E+00 -1.00000000E+00
 -1.00000000E+00 -1.00000000E+00 -1.00000000E+00 -1.00000000E+00 -1.00000000E+00
 -1.00000000E+00 -1.00000000E+00 -1.00000000E+00 -1.00000000E+00 -1.00000000E+00
 -1.00000000E+00 -1.00000000E+00 -1.00000000E+00 -1.00000000E+00 -1.00000000E+00
 -1.00000000E+00 -1.00000000E+00 -1.00000000E+00 -1.00000000E+00 -1.00000000E+00
 -1.00000000E+00 -1.00000000E+00 -1.00000000E+00 -1.00000000E+00 -1.00000000E+00
Nuclear ZNuc                               R   N=          40
  1.00000000E+00  1.00000000E+00  1.00000000E+00  1.00000000E+00  1.00000000E+00
  1.00000000E+00  1.00000000E+00  1.00000000E+00  1.00000000E+00  1.00000000E+00
  1.00000000E+00  1.00000000E+00  1.00000000E+00  1.00000000E+00  1.00000000E+00
  1.00000000E+00  1.00000000E+00  1.00000000E+00  1.00000000E+00  1.00000000E+00
  1.00000000E+00  1.00000000E+00  1.00000000E+00  1.00000000E+00  1.00000000E+00
  1.00000000E+00  1.00000000E+00  1.00000000E+00  1.00000000E+00  1.00000000E+00
  1.00000000E+00  1.00000000E+00  1.00000000E+00  1.00000000E+00  1.00000000E+00
  1.00000000E+00  1.00000000E+00  1.00000000E+00  1.00000000E+00  1.00000000E+00
Nuclear QMom                               R   N=          40
  0.00000000E+00  0.00000000E+00  0.00000000E+00  0.00000000E+00  0.00000000E+00
  0.00000000E+00  0.00000000E+00  0.00000000E+00  0.00000000E+00  0.00000000E+00
  0.00000000E+00  0.00000000E+00  0.00000000E+00  0.00000000E+00  0.00000000E+00
  0.00000000E+00  0.00000000E+00  0.00000000E+00  0.00000000E+00  0.00000000E+00
  0.00000000E+00  0.00000000E+00  0.00000000E+00  0.00000000E+00  0.00000000E+00
  0.00000000E+00  0.00000000E+00  0.00000000E+00  0.00000000E+00  0.00000000E+00
  0.00000000E+00  0.00000000E+00  0.00000000E+00  0.00000000E+00  0.00000000E+00
  0.00000000E+00  0.00000000E+00  0.00000000E+00  0.00000000E+00  0.00000000E+00
Nuclear GFac                               R   N=          40
  2.79284600E+00  2.79284600E+00  2.79284600E+00  2.79284600E+00  2.79284600E+00
  2.79284600E+00  2.79284600E+00  2.79284600E+00  2.79284600E+00  2.79284600E+00
  2.79284600E+00  2.79284600E+00  2.79284600E+00  2.79284600E+00  2.79284600E+00
  2.79284600E+00  2.79284600E+00  2.79284600E+00  2.79284600E+00  2.79284600E+00
  2.79284600E+00  2.79284600E+00  2.79284600E+00  2.79284600E+00  2.79284600E+00
  2.79284600E+00  2.79284600E+00  2.79284600E+00  2.79284600E+00  2.79284600E+00
  2.79284600E+00  2.79284600E+00  2.79284600E+00  2.79284600E+00  2.79284600E+00
  2.79284600E+00  2.79284600E+00  2.79284600E+00  2.79284600E+00  2.79284600E+00
MicOpt                                     I   N=          40
          -1          -1          -1          -1          -1          -1
          -1          -1          -1          -1          -1          -1
          -1          -1          -1          -1          -1          -1
          -1          -1          -1          -1          -1          -1
          -1          -1          -1          -1          -1          -1
          -1          -1          -1          -1          -1          -1
          -1          -1          -1          -1
Number of residues                         I                0
Number of secondary structures             I                0
Number of contracted shells                I               40
Number of primitive shells                 I              240
Pure/Cartesian d shells                    I                1
Pure/Cartesian f shells                    I                1
Highest angular momentum                   I                0
Largest degree of contraction              I                6
Shell types                                I   N=          40
           0           0           0           0           0           0
           0           0           0           0           0           0
           0           0           0           0           0           0
           0           0           0           0           0           0
           0           0           0           0           0           0
           0           0           0           0           0           0
           0           0           0           0
Number of primitives per shell             I   N=          40
           6           6           6           6           6           6
           6           6           6           6           6           6
           6           6           6           6           6           6
           6           6           6           6           6           6
           6           6           6           6           6           6
           6           6           6           6           6           6
           6           6           6           6
Shell to atom map                          I   N=          40
           1           2           3           4           5           6
           7           8           9          10          11          12
          13          14          15          16          17          18
          19          20          21          22          23          24
          25          26          27          28          29          30
          31          32          33          34          35          36
          37          38          39          40
Primitive exponents                        R   N=         240
  3.55232212E+01  6.51314373E+00  1.82214290E+00  6.25955266E-01  2.43076747E-01
  1.00112428E-01  3.55232212E+01  6.51314373E+00  1.82214290E+00  6.25955266E-01
  2.43076747E-01  1.00112428E-01  3.55232212E+01  6.51314373E+00  1.82214290E+00
  6.25955266E-01  2.43076747E-01  1.00112428E-01  3.55232212E+01  6.51314373E+00
  1.82214290E+00  6.25955266E-01  2.43076747E-01  1.00112428E-01  3.55232212E+01
  6.51314373E+00  1.82214290E+00  6.25955266E-01  2.43076747E-01  1.00112428E-01
  3.55232212E+01  6.51314373E+00  1.82214290E+00  6.25955266E-01  2.43076747E-01
  1.00112428E-01  3.55232212E+01  6.51314373E+00  1.82214290E+00  6.25955266E-01
  2.43076747E-01  1.00112428E-01  3.55232212E+01  6.51314373E+00  1.82214290E+00
  6.25955266E-01  2.43076747E-01  1.00112428E-01  3.55232212E+01  6.51314373E+00
  1.82214290E+00  6.25955266E-01  2.43076747E-01  1.00112428E-01  3.55232212E+01
  6.51314373E+00  1.82214290E+00  6.25955266E-01  2.43076747E-01  1.00112428E-01
  3.55232212E+01  6.51314373E+00  1.82214290E+00  6.25955266E-01  2.43076747E-01
  1.00112428E-01  3.55232212E+01  6.51314373E+00  1.82214290E+00  6.25955266E-01
  2.43076747E-01  1.00112428E-01  3.55232212E+01  6.51314373E+00  1.82214290E+00
  6.25955266E-01  2.43076747E-01  1.00112428E-01  3.55232212E+01  6.51314373E+00
  1.82214290E+00  6.25955266E-01  2.43076747E-01  1.00112428E-01  3.55232212E+01
  6.51314373E+00  1.82214290E+00  6.25955266E-01  2.43076747E-01  1.00112428E-01
  3.55232212E+01  6.51314373E+00  1.82214290E+00  6.25955266E-01  2.43076747E-01
  1.00112428E-01  3.55232212E+01  6.51314373E+00  1.82214290E+00  6.25955266E-01
  2.43076747E-01  1.00112428E-01  3.55232212E+01  6.51314373E+00  1.82214290E+00
  6.25955266E-01  2.43076747E-01  1.00112428E-01  3.55232212E+01  6.51314373E+00
  1.82214290E+00  6.25955266E-01  2.43076747E-01  1.00112428E-01  3.55232212E+01
  6.51314373E+00  1.82214290E+00  6.25955266E-01  2.43076747E-01  1.00112428E-01
  3.55232212E+01  6.51314373E+00  1.82214290E+00  6.25955266E-01  2.43076747E-01
  1.00112428E-01  3.55232212E+01  6.51314373E+00  1.82214290E+00  6.25955266E-01
  2.43076747E-01  1.00112428E-01  3.55232212E+01  6.51314373E+00  1.82214290E+00
  6.25955266E-01  2.43076747E-01  1.00112428E-01  3.55232212E+01  6.51314373E+00
  1.82214290E+00  6.25955266E-01  2.43076747E-01  1.00112428E-01  3.55232212E+01
  6.51314373E+00  1.82214290E+00  6.25955266E-01  2.43076747E-01  1.00112428E-01
  3.55232212E+01  6.51314373E+00  1.82214290E+00  6.25955266E-01  2.43076747E-01
  1.00112428E-01  3.55232212E+01  6.51314373E+00  1.82214290E+00  6.25955266E-01
  2.43076747E-01  1.00112428E-01  3.55232212E+01  6.51314373E+00  1.82214290E+00
  6.25955266E-01  2.43076747E-01  1.00112428E-01  3.55232212E+01  6.51314373E+00
  1.82214290E+00  6.25955266E-01  2.43076747E-01  1.00112428E-01  3.55232212E+01
  6.51314373E+00  1.82214290E+00  6.25955266E-01  2.43076747E-01  1.00112428E-01
  3.55232212E+01  6.51314373E+00  1.82214290E+00  6.25955266E-01  2.43076747E-01
  1.00112428E-01  3.55232212E+01  6.51314373E+00  1.82214290E+00  6.25955266E-01
  2.43076747E-01  1.00112428E-01  3.55232212E+01  6.51314373E+00  1.82214290E+00
  6.25955266E-01  2.43076747E-01  1.00112428E-01  3.55232212E+01  6.51314373E+00
  1.82214290E+00  6.25955266E-01  2.43076747E-01  1.00112428E-01  3.55232212E+01
  6.51314373E+00  1.82214290E+00  6.25955266E-01  2.43076747E-01  1.00112428E-01
  3.55232212E+01  6.51314373E+00  1.82214290E+00  6.25955266E-01  2.43076747E-01
  1.00112428E-01  3.55232212E+01  6.51314373E+00  1.82214290E+00  6.25955266E-01
  2.43076747E-01  1.00112428E-01  3.55232212E+01  6.51314373E+00  1.82214290E+00
  6.25955266E-01  2.43076747E-01  1.00112428E-01  3.55232212E+01  6.51314373E+00
  1.82214290E+00  6.25955266E-01  2.43076747E-01  1.00112428E-01  3.55232212E+01
  6.51314373E+00  1.82214290E+00  6.25955266E-01  2.43076747E-01  1.00112428E-01
Contraction coefficients                   R   N=         240
  9.16359628E-03  4.93614929E-02  1.68538305E-01  3.70562800E-01  4.16491530E-01
  1.30334084E-01  9.16359628E-03  4.93614929E-02  1.68538305E-01  3.70562800E-01
  4.16491530E-01  1.30334084E-01  9.16359628E-03  4.93614929E-02  1.68538305E-01
  3.70562800E-01  4.16491530E-01  1.30334084E-01  9.16359628E-03  4.93614929E-02
  1.68538305E-01  3.70562800E-01  4.16491530E-01  1.30334084E-01  9.16359628E-03
  4.93614929E-02  1.68538305E-01  3.70562800E-01  4.16491530E-01  1.30334084E-01
  9.16359628E-03  4.93614929E-02  1.68538305E-01  3.70562800E-01  4.16491530E-01
  1.30334084E-01  9.16359628E-03  4.93614929E-02  1.68538305E-01  3.70562800E-01
  4.16491530E-01  1.30334084E-01  9.16359628E-03  4.93614929E-02  1.68538305E-01
  3.70562800E-01  4.16491530E-01  1.30334084E-01  9.16359628E-03  4.93614929E-02
  1.68538305E-01  3.70562800E-01  4.16491530E-01  1.30334084E-01  9.16359628E-03
  4.93614929E-02  1.68538305E-01  3.70562800E-01  4.16491530E-01  1.30334084E-01
  9.16359628E-03  4.93614929E-02  1.68538305E-01  3.70562800E-01  4.16491530E-01
  1.30334084E-01  9.16359628E-03  4.93614929E-02  1.68538305E-01  3.70562800E-01
  4.16491530E-01  1.30334084E-01  9.16359628E-03  4.93614929E-02  1.68538305E-01
  3.70562800E-01  4.16491530E-01  1.30334084E-01  9.16359628E-03  4.93614929E-02
  1.68538305E-01  3.70562800E-01  4.16491530E-01  1.30334084E-01  9.16359628E-03
  4.93614929E-02  1.68538305E-01  3.70562800E-01  4.16491530E-01  1.30334084E-01
  9.16359628E-03  4.93614929E-02  1.68538305E-01  3.70562800E-01  4.16491530E-01
  1.30334084E-01  9.16359628E-03  4.93614929E-02  1.68538305E-01  3.70562800E-01
  4.16491530E-01  1.30334084E-01  9.16359628E-03  4.93614929E-02  1.68538305E-01
  3.70562800E-01  4.16491530E-01  1.30334084E-01  9.16359628E-03  4.93614929E-02
  1.68538305E-01  3.70562800E-01  4.16491530E-01  1.30334084E-01  9.16359628E-03
  4.93614929E-02  1.68538305E-01  3.70562800E-01  4.16491530E-01  1.30334084E-01
  9.16359628E-03  4.93614929E-02  1.68538305E-01  3.70562800E-01  4.16491530E-01
  1.30334084E-01  9.16359628E-03  4.93614929E-02  1.68538305E-01  3.70562800E-01
  4.16491530E-01  1.30334084E-01  9.16359628E-03  4.93614929E-02  1.68538305E-01
  3.70562800E-01  4.16491530E-01  1.30334084E-01  9.16359628E-03  4.93614929E-02
  1.68538305E-01  3.70562800E-01  4.16491530E-01  1.30334084E-01  9.16359628E-03
  4.93614929E-02  1.68538305E-01  3.70562800E-01  4.16491530E-01  1.30334084E-01
  9.16359628E-03  4.93614929E-02  1.68538305E-01  3.70562800E-01  4.16491530E-01
  1.30334084E-01  9.16359628E-03  4.93614929E-02  1.68538305E-01  3.70562800E-01
  4.16491530E-01  1.30334084E-01  9.16359628E-03  4.93614929E-02  1.68538305E-01
  3.70562800E-01  4.16491530E-01  1.30334084E-01  9.16359628E-03  4.93614929E-02
  1.68538305E-01  3.70562800E-01  4.16491530E-01  1.30334084E-01  9.16359628E-03
  4.93614929E-02  1.68538305E-01  3.70562800E-01  4.16491530E-01  1.30334084E-01
  9.16359628E-03  4.93614929E-02  1.68538305E-01  3.70562800E-01  4.16491530E-01
  1.30334084E-01  9.16359628E-03  4.93614929E-02  1.68538305E-01  3.70562800E-01
  4.16491530E-01  1.30334084E-01  9.16359628E-03  4.93614929E-02  1.68538305E-01
  3.70562800E-01  4.16491530E-01  1.30334084E-01  9.16359628E-03  4.93614929E-02
  1.68538305E-01  3.70562800E-01  4.16491530E-01  1.30334084E-01  9.16359628E-03
  4.93614929E-02  1.68538305E-01  3.70562800E-01  4.16491530E-01  1.30334084E-01
  9.16359628E-03  4.93614929E-02  1.68538305E-01  3.70562800E-01  4.16491530E-01
  1.30334084E-01  9.16359628E-03  4.93614929E-02  1.68538305E-01  3.70562800E-01
  4.16491530E-01  1.30334084E-01  9.16359628E-03  4.93614929E-02  1.68538305E-01
  3.70562800E-01  4.16491530E-01  1.30334084E-01  9.16359628E-03  4.93614929E-02
  1.68538305E-01  3.70562800E-01  4.16491530E-01  1.30334084E-01  9.16359628E-03
  4.93614929E-02  1.68538305E-01  3.70562800E-01  4.16491530E-01  1.30334084E-01
Coordinates of each shell                  R   N=         120
  0.00000000E+00  0.00000000E+00 -5.66917837E+01  0.00000000E+00  0.00000000E+00
 -5.38571946E+01  0.00000000E+00  0.00000000E+00 -5.10226054E+01  0.00000000E+00
  0.00000000E+00 -4.81880162E+01  0.00000000E+00  0.00000000E+00 -4.53534270E+01
  0.00000000E+00  0.00000000E+00 -4.25188378E+01  0.00000000E+00  0.00000000E+00
 -3.96842486E+01  0.00000000E+00  0.00000000E+00 -3.68496594E+01  0.00000000E+00
  0.00000000E+00 -3.40150702E+01  0.00000000E+00  0.00000000E+00 -3.11804811E+01
  0.00000000E+00  0.00000000E+00 -2.83458919E+01  0.00000000E+00  0.00000000E+00
 -2.55113027E+01  0.00000000E+00  0.00000000E+00 -2.26767135E+01  0.00000000E+00
  0.00000000E+00 -1.98421243E+01  0.00000000E+00  0.00000000E+00 -1.70075351E+01
  0.00000000E+00  0.00000000E+00 -1.41729459E+01  0.00000000E+00  0.00000000E+00
 -1.13383567E+01  0.00000000E+00  0.00000000E+00 -8.50376756E+00  0.00000000E+00
  0.00000000E+00 -5.66917837E+00  0.00000000E+00  0.00000000E+00 -2.83458919E+00
  0.00000000E+00  0.00000000E+00  0.00000000E+00  0.00000000E+00  0.00000000E+00
  2.83458919E+00  0.00000000E+00  0.00000000E+00  5.66917837E+00  0.00000000E+00
  0.00000000E+00  8.50376756E+00  0.00000000E+00  0.00000000E+00  1.13383567E+01
  0.00000000E+00  0.00000000E+00  1.41729459E+01  0.00000000E+00  0.00000000E+00
  1.70075351E+01  0.00000000E+00  0.00000000E+00  1.98421243E+01  0.00000000E+00
  0.00000000E+00  2.26767135E+01  0.00000000E+00  0.00000000E+00  2.55113027E+01
  0.00000000E+00  0.00000000E+00  2.83458919E+01  0.00000000E+00  0.00000000E+00
  3.11804811E+01  0.00000000E+00  0.00000000E+00  3.40150702E+01  0.00000000E+00
  0.00000000E+00  3.68496594E+01  0.00000000E+00  0.00000000E+00  3.96842486E+01
  0.00000000E+00  0.00000000E+00  4.25188378E+01  0.00000000E+00  0.00000000E+00
  4.53534270E+01  0.00000000E+00  0.00000000E+00  4.81880162E+01  0.00000000E+00
  0.00000000E+00  5.10226054E+01  0.00000000E+00  0.00000000E+00  5.38571946E+01
Num ILSW                                   I              100
ILSW                                       I   N=         100
           0           1           0           0           2           1
           0           0           0           0           0          -1
           5           0           0           1           0           0
           0           0           0           0           0           0
           1           1           0           0           0           0
           0           0      100000           0          -1           0
           0           0           0           0           0           0
           0           0           0           1           0           0
           0 -2000000000           1           0           0           0
           0           0           4          52           0           0
           0           0           0           0           0           0
           0           0           0          40           0           1
           0           0           0           0           0           0
           0           0           0           0           0           0
           0           0           0           0           0           0
           0           0           0           0           0           0
           0           0           0           0
Num RLSW                                   I               52
RLSW                                       R   N=          52
  1.00000000E+00  1.00000000E+00  1.00000000E+00  1.00000000E+00  1.00000000E+00
  0.00000000E+00  0.00000000E+00  1.00000000E+00  0.00000000E+00  0.00000000E+00
  0.00000000E+00  0.00000000E+00  1.00000000E+00  0.00000000E+00  0.00000000E+00
  0.00000000E+00  0.00000000E+00  1.00000000E+00  0.00000000E+00  0.00000000E+00
  0.00000000E+00  0.00000000E+00  1.00000000E+00  0.00000000E+00  0.00000000E+00
  0.00000000E+00  0.00000000E+00  1.00000000E+00  0.00000000E+00  0.00000000E+00
  0.00000000E+00  0.00000000E+00  1.00000000E+00  0.00000000E+00  0.00000000E+00
  0.00000000E+00  0.00000000E+00  0.00000000E+00  1.00000000E+00  1.00000000E+00
  0.00000000E+00  1.00000000E+00  0.00000000E+00  0.00000000E+00  0.00000000E+00
  0.00000000E+00  0.00000000E+00  0.00000000E+00  0.00000000E+00  0.00000000E+00
  0.00000000E+00  0.00000000E+00
MxBond                                     I                1
NBond                                      I   N=          40
           0           0           0           0           0           0
           0           0           0           0           0           0
           0           0           0           0           0           0
           0           0           0           0           0           0
           0           0           0           0           0           0
           0           0           0           0           0           0
           0           0           0           0
IBond                                      I   N=          40
           0           0           0           0           0           0
           0           0           0           0           0           0
           0           0           0           0           0           0
           0           0           0           0           0           0
           0           0           0           0           0           0
           0           0           0           0           0           0
           0           0           0           0
RBond                                      R   N=          40
  0.00000000E+00  0.00000000E+00  0.00000000E+00  0.00000000E+00  0.00000000E+00
  0.00000000E+00  0.00000000E+00  0.00000000E+00  0.00000000E+00  0.00000000E+00
  0.00000000E+00  0.00000000E+00  0.00000000E+00  0.00000000E+00  0.00000000E+00
  0.00000000E+00  0.00000000E+00  0.00000000E+00  0.00000000E+00  0.00000000E+00
  0.00000000E+00  0.00000000E+00  0.00000000E+00  0.00000000E+00  0.00000000E+00
  0.00000000E+00  0.00000000E+00  0.00000000E+00  0.00000000E+00  0.00000000E+00
  0.00000000E+00  0.00000000E+00  0.00000000E+00  0.00000000E+00  0.00000000E+00
  0.00000000E+00  0.00000000E+00  0.00000000E+00  0.00000000E+00  0.00000000E+00
Virial Ratio                               R      1.724372561070554E+00
SCF Energy                                 R     -1.965813415406009E+01
Total Energy                               R     -1.965813415406009E+01
S**2                                       R      1.146994512740984E+01
S**2 after annihilation                    R      3.724936710254945E+01
RMS Density                                R      1.462256528610216E-09
Job Status                                 I                1
Nuclear derivative order                   I                0
External E-field                           R   N=          35
  0.00000000E+00  0.00000000E+00  0.00000000E+00  0.00000000E+00  0.00000000E+00
  0.00000000E+00  0.00000000E+00  0.00000000E+00  0.00000000E+00  0.00000000E+00
  0.00000000E+00  0.00000000E+00  0.00000000E+00  0.00000000E+00  0.00000000E+00
  0.00000000E+00  0.00000000E+00  0.00000000E+00  0.00000000E+00  0.00000000E+00
  0.00000000E+00  0.00000000E+00  0.00000000E+00  0.00000000E+00  0.00000000E+00
  0.00000000E+00  0.00000000E+00  0.00000000E+00  0.00000000E+00  0.00000000E+00
  0.00000000E+00  0.00000000E+00  0.00000000E+00  0.00000000E+00  0.00000000E+00
IOpCl                                      I                0
IROHF                                      I                0
Alpha Orbital Energies                     R   N=          40
 -5.18527769E-01 -5.17099207E-01 -5.14800359E-01 -5.11641391E-01 -5.07630477E-01
 -5.02787032E-01 -4.97148183E-01 -4.90770640E-01 -4.83731392E-01 -4.76128975E-01