 Entering Gaussian System, Link 0=g16
 Input=H2_opt.gjf
 Output=H2_opt.log
 Initial command:
 /home/qingchun/software/g16A_modified_by_qingchun/g16/l1.exe "/scratch/qingchun/gaussian/Gau-17202.inp" -scrdir="/scratch/qingchun/gaussian/"
 Entering Link 1 = /home/qingchun/software/g16A_modified_by_qingchun/g16/l1.exe PID=     17203.
  
 Copyright (c) 1988,1990,1992,1993,1995,1998,2003,2009,2016,
            Gaussian, Inc.  All Rights Reserved.
  
 This is part of the Gaussian(R) 16 program.  It is based on
 the Gaussian(R) 09 system (copyright 2009, Gaussian, Inc.),
 the Gaussian(R) 03 system (copyright 2003, Gaussian, Inc.),
 the Gaussian(R) 98 system (copyright 1998, Gaussian, Inc.),
 the Gaussian(R) 94 system (copyright 1995, Gaussian, Inc.),
 the Gaussian 92(TM) system (copyright 1992, Gaussian, Inc.),
 the Gaussian 90(TM) system (copyright 1990, Gaussian, Inc.),
 the Gaussian 88(TM) system (copyright 1988, Gaussian, Inc.),
 the Gaussian 86(TM) system (copyright 1986, Carnegie Mellon
 University), and the Gaussian 82(TM) system (copyright 1983,
 Carnegie Mellon University). Gaussian is a federally registered
 trademark of Gaussian, Inc.
  
 This software contains proprietary and confidential information,
 including trade secrets, belonging to Gaussian, Inc.
  
 This software is provided under written license and may be
 used, copied, transmitted, or stored only in accord with that
 written license.
  
 The following legend is applicable only to US Government
 contracts under FAR:
  
                    RESTRICTED RIGHTS LEGEND
  
 Use, reproduction and disclosure by the US Government is
 subject to restrictions as set forth in subparagraphs (a)
 and (c) of the Commercial Computer Software - Restricted
 Rights clause in FAR 52.227-19.
  
 Gaussian, Inc.
 340 Quinnipiac St., Bldg. 40, Wallingford CT 06492
  
  
 ---------------------------------------------------------------
 Warning -- This program may not be used in any manner that
 competes with the business of Gaussian, Inc. or will provide
 assistance to any competitor of Gaussian, Inc.  The licensee
 of this program is prohibited from giving any competitor of
 Gaussian, Inc. access to this program.  By using this program,
 the user acknowledges that Gaussian, Inc. is engaged in the
 business of creating and licensing software in the field of
 computational chemistry and represents and warrants to the
 licensee that it is not a competitor of Gaussian, Inc. and that
 it will not use this program in any manner prohibited above.
 ---------------------------------------------------------------
  

 Cite this work as:
 Gaussian 16, Revision A.03,
 M. J. Frisch, G. W. Trucks, H. B. Schlegel, G. E. Scuseria, 
 M. A. Robb, J. R. Cheeseman, G. Scalmani, V. Barone, 
 G. A. Petersson, H. Nakatsuji, X. Li, M. Caricato, A. V. Marenich, 
 J. Bloino, B. G. Janesko, R. Gomperts, B. Mennucci, H. P. Hratchian, 
 J. V. Ortiz, A. F. Izmaylov, J. L. Sonnenberg, D. Williams-Young, 
 F. Ding, F. Lipparini, F. Egidi, J. Goings, B. Peng, A. Petrone, 
 T. Henderson, D. Ranasinghe, V. G. Zakrzewski, J. Gao, N. Rega, 
 G. Zheng, W. Liang, M. Hada, M. Ehara, K. Toyota, R. Fukuda, 
 J. Hasegawa, M. Ishida, T. Nakajima, Y. Honda, O. Kitao, H. Nakai, 
 T. Vreven, K. Throssell, J. A. Montgomery, Jr., J. E. Peralta, 
 F. Ogliaro, M. J. Bearpark, J. J. Heyd, E. N. Brothers, K. N. Kudin, 
 V. N. Staroverov, T. A. Keith, R. Kobayashi, J. Normand, 
 K. Raghavachari, A. P. Rendell, J. C. Burant, S. S. Iyengar, 
 J. Tomasi, M. Cossi, J. M. Millam, M. Klene, C. Adamo, R. Cammi, 
 J. W. Ochterski, R. L. Martin, K. Morokuma, O. Farkas, 
 J. B. Foresman, and D. J. Fox, Gaussian, Inc., Wallingford CT, 2016.
 
 ******************************************
 Gaussian 16:  ES64L-G16RevA.03 25-Dec-2016
                11-Nov-2019 
 ******************************************
 %nprocshared=4
 Will use up to    4 processors via shared memory.
 %mem=24GB
 %chk=H2_opt.chk
 ---------------------------
 # opt freq b3lyp/cc-pVDZ 6D
 ---------------------------
 1/18=20,19=15,26=3,38=1/1,3;
 2/9=110,12=2,17=6,18=5,40=1/2;
 3/5=16,8=2,11=2,25=1,30=1,71=1,74=-5/1,2,3;
 4//1;
 5/5=2,38=5/2;
 6/7=2,8=2,9=2,10=2,28=1/1;
 7//1,2,3,16;
 1/18=20,19=15,26=3/3(2);
 2/9=110/2;
 99//99;
 2/9=110/2;
 3/5=16,8=2,11=2,25=1,30=1,71=1,74=-5/1,2,3;
 4/5=5,16=3,69=1/1;
 5/5=2,38=5/2;
 7//1,2,3,16;
 1/18=20,19=15,26=3/3(-5);
 2/9=110/2;
 6/7=2,8=2,9=2,10=2,19=2,28=1/1;
 99/9=1/99;
 --------------------------------
 sto-6g 6D meta_Lowdin trans_dipo
 --------------------------------
 Symbolic Z-matrix:
 Charge =  0 Multiplicity = 1
 H                    -0.34852   0.31828  -0.06158 
 H                    -0.53685  -0.20884  -0.27762 
 

 GradGradGradGradGradGradGradGradGradGradGradGradGradGradGradGradGradGrad
 Berny optimization.
 Initialization pass.
                           ----------------------------
                           !    Initial Parameters    !
                           ! (Angstroms and Degrees)  !
 --------------------------                            --------------------------
 ! Name  Definition              Value          Derivative Info.                !
 --------------------------------------------------------------------------------
 ! R1    R(1,2)                  0.6            estimate D2E/DX2                !
 --------------------------------------------------------------------------------
 Trust Radius=3.00D-01 FncErr=1.00D-07 GrdErr=1.00D-06 EigMax=2.50D+02 EigMin=1.00D-04
 Number of steps in this run=     20 maximum allowed number of steps=    100.
 GradGradGradGradGradGradGradGradGradGradGradGradGradGradGradGradGradGrad

                          Input orientation:                          
 ---------------------------------------------------------------------
 Center     Atomic      Atomic             Coordinates (Angstroms)
 Number     Number       Type             X           Y           Z
 ---------------------------------------------------------------------
      1          1           0       -0.348515    0.318278   -0.061584
      2          1           0       -0.536853   -0.208843   -0.277621
 ---------------------------------------------------------------------
 Stoichiometry    H2
 Framework group  D*H[C*(H.H)]
 Deg. of freedom     1
 Full point group                 D*H     NOp   8
 Largest Abelian subgroup         D2H     NOp   8
 Largest concise Abelian subgroup C2      NOp   2
                         Standard orientation:                         
 ---------------------------------------------------------------------
 Center     Atomic      Atomic             Coordinates (Angstroms)
 Number     Number       Type             X           Y           Z
 ---------------------------------------------------------------------
      1          1           0        0.000000    0.000000    0.300000
      2          1           0        0.000000    0.000000   -0.300000
 ---------------------------------------------------------------------
 Rotational constants (GHZ):           0.0000000        2785.8616802        2785.8616802
 Standard basis: CC-pVDZ (6D, 7F)
 There are     3 symmetry adapted cartesian basis functions of AG  symmetry.
 There are     0 symmetry adapted cartesian basis functions of B1G symmetry.
 There are     1 symmetry adapted cartesian basis functions of B2G symmetry.
 There are     1 symmetry adapted cartesian basis functions of B3G symmetry.
 There are     0 symmetry adapted cartesian basis functions of AU  symmetry.
 There are     3 symmetry adapted cartesian basis functions of B1U symmetry.
 There are     1 symmetry adapted cartesian basis functions of B2U symmetry.
 There are     1 symmetry adapted cartesian basis functions of B3U symmetry.
 There are     3 symmetry adapted basis functions of AG  symmetry.
 There are     0 symmetry adapted basis functions of B1G symmetry.
 There are     1 symmetry adapted basis functions of B2G symmetry.
 There are     1 symmetry adapted basis functions of B3G symmetry.
 There are     0 symmetry adapted basis functions of AU  symmetry.
 There are     3 symmetry adapted basis functions of B1U symmetry.
 There are     1 symmetry adapted basis functions of B2U symmetry.
 There are     1 symmetry adapted basis functions of B3U symmetry.
    10 basis functions,    14 primitive gaussians,    10 cartesian basis functions
     1 alpha electrons        1 beta electrons
       nuclear repulsion energy         0.8819620164 Hartrees.
 NAtoms=    2 NActive=    2 NUniq=    1 SFac= 4.00D+00 NAtFMM=   60 NAOKFM=F Big=F
 Integral buffers will be    131072 words long.
 Raffenetti 2 integral format.
 Two-electron integral symmetry is turned on.
 One-electron integrals computed using PRISM.
 NBasis=    10 RedAO= T EigKep=  2.03D-02  NBF=     3     0     1     1     0     3     1     1
 NBsUse=    10 1.00D-06 EigRej= -1.00D+00 NBFU=     3     0     1     1     0     3     1     1
 ExpMin= 1.22D-01 ExpMax= 1.30D+01 ExpMxC= 1.30D+01 IAcc=3 IRadAn=         5 AccDes= 0.00D+00
 Harris functional with IExCor=  402 and IRadAn=       5 diagonalized for initial guess.
 HarFok:  IExCor=  402 AccDes= 0.00D+00 IRadAn=         5 IDoV= 1 UseB2=F ITyADJ=14
 ICtDFT=  3500011 ScaDFX=  1.000000  1.000000  1.000000  1.000000
 FoFCou: FMM=F IPFlag=           0 FMFlag=      100000 FMFlg1=           0
         NFxFlg=           0 DoJE=T BraDBF=F KetDBF=T FulRan=T
         wScrn=  0.000000 ICntrl=       500 IOpCl=  0 I1Cent=   200000004 NGrid=           0
         NMat0=    1 NMatS0=      1 NMatT0=    0 NMatD0=    1 NMtDS0=    0 NMtDT0=    0
 Petite list used in FoFCou.
 Initial guess orbital symmetries:
       Occupied  (SGG)
       Virtual   (SGU) (SGG) (SGU) (PIU) (PIU) (SGG) (PIG) (PIG)
                 (SGU)
 The electronic state of the initial guess is 1-SGG.
 Keep R1 ints in memory in symmetry-blocked form, NReq=3446976.
 Requested convergence on RMS density matrix=1.00D-08 within 128 cycles.
 Requested convergence on MAX density matrix=1.00D-06.
 Requested convergence on             energy=1.00D-06.
 No special actions if energy rises.
 Integral accuracy reduced to 1.0D-05 until final iterations.
 Initial convergence to 1.0D-05 achieved.  Increase integral accuracy.
 SCF Done:  E(RB3LYP) =  -1.14905693058     A.U. after    6 cycles
            NFock=  6  Conv=0.37D-08     -V/T= 1.9300

 **********************************************************************

            Population analysis using the SCF density.

 **********************************************************************

 Orbital symmetries:
       Occupied  (SGG)
       Virtual   (SGU) (SGG) (SGU) (PIU) (PIU) (SGG) (PIG) (PIG)
                 (SGU)
 The electronic state is 1-SGG.
 Alpha  occ. eigenvalues --   -0.46187
 Alpha virt. eigenvalues --    0.10590   0.30071   0.82068   1.06330   1.06330
 Alpha virt. eigenvalues --    1.80476   1.87066   1.87066   4.39822
          Condensed to atoms (all electrons):
               1          2
     1  H    0.555506   0.444494
     2  H    0.444494   0.555506
 Mulliken charges:
               1
     1  H    0.000000
     2  H    0.000000
 Sum of Mulliken charges =   0.00000
 Mulliken charges with hydrogens summed into heavy atoms:
               1
 Electronic spatial extent (au):  <R**2>=              4.3707
 Charge=              0.0000 electrons
 Dipole moment (field-independent basis, Debye):
    X=              0.0000    Y=              0.0000    Z=              0.0000  Tot=              0.0000
 Quadrupole moment (field-independent basis, Debye-Ang):
   XX=             -1.8171   YY=             -1.8171   ZZ=             -1.3798
   XY=              0.0000   XZ=              0.0000   YZ=              0.0000
 Traceless Quadrupole moment (field-independent basis, Debye-Ang):
   XX=             -0.1458   YY=             -0.1458   ZZ=              0.2915
   XY=              0.0000   XZ=              0.0000   YZ=              0.0000
 Octapole moment (field-independent basis, Debye-Ang**2):
  XXX=              0.0000  YYY=              0.0000  ZZZ=              0.0000  XYY=              0.0000
  XXY=              0.0000  XXZ=              0.0000  XZZ=              0.0000  YZZ=              0.0000
  YYZ=              0.0000  XYZ=              0.0000
 Hexadecapole moment (field-independent basis, Debye-Ang**3):
 XXXX=             -1.5139 YYYY=             -1.5139 ZZZZ=             -1.9623 XXXY=              0.0000
 XXXZ=              0.0000 YYYX=              0.0000 YYYZ=              0.0000 ZZZX=              0.0000
 ZZZY=              0.0000 XXYY=             -0.5046 XXZZ=             -0.5877 YYZZ=             -0.5877
 XXYZ=              0.0000 YYXZ=              0.0000 ZZXY=              0.0000
 N-N= 8.819620164103D-01 E-N=-3.933906147092D+00  KE= 1.235560595316D+00
 Symmetry AG   KE= 1.235560595316D+00
 Symmetry B1G  KE= 0.000000000000D+00
 Symmetry B2G  KE= 1.056158710761D-33
 Symmetry B3G  KE= 1.601136529689D-33
 Symmetry AU   KE= 0.000000000000D+00
 Symmetry B1U  KE= 2.806695254488D-31
 Symmetry B2U  KE= 4.946833093486D-34
 Symmetry B3U  KE= 1.064865516274D-34
 Calling FoFJK, ICntrl=      2127 FMM=F ISym2X=1 I1Cent= 0 IOpClX= 0 NMat=1 NMatS=1 NMatT=0.
 ***** Axes restored to original set *****
 -------------------------------------------------------------------
 Center     Atomic                   Forces (Hartrees/Bohr)
 Number     Number              X              Y              Z
 -------------------------------------------------------------------
      1        1           0.060626490    0.169681997    0.069542905
      2        1          -0.060626490   -0.169681997   -0.069542905
 -------------------------------------------------------------------
 Cartesian Forces:  Max     0.169681997 RMS     0.111510489

 GradGradGradGradGradGradGradGradGradGradGradGradGradGradGradGradGradGrad
 Berny optimization.
 FormGI is forming the generalized inverse of G from B-inverse, IUseBI=4.
 Internal  Forces:  Max     0.193141832 RMS     0.193141832
 Search for a local minimum.
 Step number   1 out of a maximum of   20
 All quantities printed in internal units (Hartrees-Bohrs-Radians)
 Mixed Optimization -- RFO/linear search
 Second derivative matrix not updated -- first step.
 The second derivative matrix:
                          R1
           R1           0.66291
 ITU=  0
     Eigenvalues ---    0.66291
 RFO step:  Lambda=-5.21672170D-02 EMin= 6.62913426D-01
 Linear search not attempted -- first point.
 Iteration  1 RMS(Cart)=  0.14142136 RMS(Int)=  0.07009797
 Iteration  2 RMS(Cart)=  0.04956675 RMS(Int)=  0.00000000
 Iteration  3 RMS(Cart)=  0.00000000 RMS(Int)=  0.00000000
 ClnCor:  largest displacement from symmetrization is 6.84D-16 for atom     2.
 Variable       Old X    -DE/DX   Delta X   Delta X   Delta X     New X
                                 (Linear)    (Quad)   (Total)
    R1        1.13384   0.19314   0.00000   0.27010   0.27010   1.40393
         Item               Value     Threshold  Converged?
 Maximum Force            0.193142     0.000450     NO 
 RMS     Force            0.193142     0.000300     NO 
 Maximum Displacement     0.118645     0.001800     NO 
 RMS     Displacement     0.190988     0.001200     NO 
 Predicted change in Energy=-2.798648D-02
 GradGradGradGradGradGradGradGradGradGradGradGradGradGradGradGradGradGrad

                          Input orientation:                          
 ---------------------------------------------------------------------
 Center     Atomic      Atomic             Coordinates (Angstroms)
 Number     Number       Type             X           Y           Z
 ---------------------------------------------------------------------
      1          1           0       -0.326083    0.381062   -0.035853
      2          1           0       -0.559286   -0.271628   -0.303353
 ---------------------------------------------------------------------
 Stoichiometry    H2
 Framework group  D*H[C*(H.H)]
 Deg. of freedom     1
 Full point group                 D*H     NOp   8
 Largest Abelian subgroup         D2H     NOp   8
 Largest concise Abelian subgroup C2      NOp   2
                         Standard orientation:                         
 ---------------------------------------------------------------------
 Center     Atomic      Atomic             Coordinates (Angstroms)
 Number     Number       Type             X           Y           Z
 ---------------------------------------------------------------------
      1          1           0        0.000000    0.000000    0.371465
      2          1           0        0.000000    0.000000   -0.371465
 ---------------------------------------------------------------------
 Rotational constants (GHZ):           0.0000000        1817.0489196        1817.0489196
 Standard basis: CC-pVDZ (6D, 7F)
 There are     3 symmetry adapted cartesian basis functions of AG  symmetry.
 There are     0 symmetry adapted cartesian basis functions of B1G symmetry.
 There are     1 symmetry adapted cartesian basis functions of B2G symmetry.
 There are     1 symmetry adapted cartesian basis functions of B3G symmetry.
 There are     0 symmetry adapted cartesian basis functions of AU  symmetry.
 There are     3 symmetry adapted cartesian basis functions of B1U symmetry.
 There are     1 symmetry adapted cartesian basis functions of B2U symmetry.
 There are     1 symmetry adapted cartesian basis functions of B3U symmetry.
 There are     3 symmetry adapted basis functions of AG  symmetry.
 There are     0 symmetry adapted basis functions of B1G symmetry.
 There are     1 symmetry adapted basis functions of B2G symmetry.
 There are     1 symmetry adapted basis functions of B3G symmetry.
 There are     0 symmetry adapted basis functions of AU  symmetry.
 There are     3 symmetry adapted basis functions of B1U symmetry.
 There are     1 symmetry adapted basis functions of B2U symmetry.
 There are     1 symmetry adapted basis functions of B3U symmetry.
    10 basis functions,    14 primitive gaussians,    10 cartesian basis functions
     1 alpha electrons        1 beta electrons
       nuclear repulsion energy         0.7122843737 Hartrees.
 NAtoms=    2 NActive=    2 NUniq=    1 SFac= 4.00D+00 NAtFMM=   60 NAOKFM=F Big=F
 Integral buffers will be    131072 words long.
 Raffenetti 2 integral format.
 Two-electron integral symmetry is turned on.
 One-electron integrals computed using PRISM.
 NBasis=    10 RedAO= T EigKep=  4.43D-02  NBF=     3     0     1     1     0     3     1     1
 NBsUse=    10 1.00D-06 EigRej= -1.00D+00 NBFU=     3     0     1     1     0     3     1     1
 Initial guess from the checkpoint file:  "H2_opt.chk"
 B after Tr=     0.000000    0.000000    0.000000
         Rot=    1.000000    0.000000    0.000000    0.000000 Ang=   0.00 deg.
 Initial guess orbital symmetries:
       Occupied  (SGG)
       Virtual   (SGU) (SGG) (SGU) (PIU) (PIU) (SGG) (PIG) (PIG)
                 (SGU)
 ExpMin= 1.22D-01 ExpMax= 1.30D+01 ExpMxC= 1.30D+01 IAcc=2 IRadAn=         4 AccDes= 0.00D+00
 Harris functional with IExCor=  402 and IRadAn=       4 diagonalized for initial guess.
 HarFok:  IExCor=  402 AccDes= 0.00D+00 IRadAn=         4 IDoV= 1 UseB2=F ITyADJ=14
 ICtDFT=  3500011 ScaDFX=  1.000000  1.000000  1.000000  1.000000
 FoFCou: FMM=F IPFlag=           0 FMFlag=      100000 FMFlg1=           0
         NFxFlg=           0 DoJE=T BraDBF=F KetDBF=T FulRan=T
         wScrn=  0.000000 ICntrl=       500 IOpCl=  0 I1Cent=   200000004 NGrid=           0
         NMat0=    1 NMatS0=      1 NMatT0=    0 NMatD0=    1 NMtDS0=    0 NMtDT0=    0
 Petite list used in FoFCou.
 Keep R1 ints in memory in symmetry-blocked form, NReq=3446976.
 Requested convergence on RMS density matrix=1.00D-08 within 128 cycles.
 Requested convergence on MAX density matrix=1.00D-06.
 Requested convergence on             energy=1.00D-06.
 No special actions if energy rises.
 Integral accuracy reduced to 1.0D-05 until final iterations.
 Initial convergence to 1.0D-05 achieved.  Increase integral accuracy.
 SCF Done:  E(RB3LYP) =  -1.17336333794     A.U. after    6 cycles
            NFock=  6  Conv=0.70D-09     -V/T= 2.0675
 Calling FoFJK, ICntrl=      2127 FMM=F ISym2X=1 I1Cent= 0 IOpClX= 0 NMat=1 NMatS=1 NMatT=0.
 ***** Axes restored to original set *****
 -------------------------------------------------------------------
 Center     Atomic                   Forces (Hartrees/Bohr)
 Number     Number              X              Y              Z
 -------------------------------------------------------------------
      1        1           0.004303809    0.012045540    0.004936775
      2        1          -0.004303809   -0.012045540   -0.004936775
 -------------------------------------------------------------------
 Cartesian Forces:  Max     0.012045540 RMS     0.007916008

 GradGradGradGradGradGradGradGradGradGradGradGradGradGradGradGradGradGrad
 Berny optimization.
 Using GEDIIS/GDIIS optimizer.
 Internal  Forces:  Max     0.013710928 RMS     0.013710928
 Search for a local minimum.
 Step number   2 out of a maximum of   20
 All quantities printed in internal units (Hartrees-Bohrs-Radians)
 Mixed Optimization -- RFO/linear search
 Update second derivatives using D2CorX and points    1    2
 DE= -2.43D-02 DEPred=-2.80D-02 R= 8.69D-01
 TightC=F SS=  1.41D+00  RLast= 2.70D-01 DXNew= 5.0454D-01 8.1029D-01
 Trust test= 8.69D-01 RLast= 2.70D-01 DXMaxT set to 5.05D-01
 The second derivative matrix:
                          R1
           R1           0.66432
 ITU=  1  0
 Use linear search instead of GDIIS.
     Eigenvalues ---    0.66432
 RFO step:  Lambda= 0.00000000D+00 EMin= 6.64317847D-01
 Quartic linear search produced a step of  0.14229.
 Iteration  1 RMS(Cart)=  0.02717539 RMS(Int)=  0.00000000
 Iteration  2 RMS(Cart)=  0.00000000 RMS(Int)=  0.00000000
 ClnCor:  largest displacement from symmetrization is 3.20D-16 for atom     1.
 Variable       Old X    -DE/DX   Delta X   Delta X   Delta X     New X
                                 (Linear)    (Quad)   (Total)
    R1        1.40393   0.01371   0.03843   0.00000   0.03843   1.44237
         Item               Value     Threshold  Converged?
 Maximum Force            0.013711     0.000450     NO 
 RMS     Force            0.013711     0.000300     NO 
 Maximum Displacement     0.016882     0.001800     NO 
 RMS     Displacement     0.027175     0.001200     NO 
 Predicted change in Energy=-3.633574D-05
 GradGradGradGradGradGradGradGradGradGradGradGradGradGradGradGradGradGrad

                          Input orientation:                          
 ---------------------------------------------------------------------
 Center     Atomic      Atomic             Coordinates (Angstroms)
 Number     Number       Type             X           Y           Z
 ---------------------------------------------------------------------
      1          1           0       -0.322891    0.389996   -0.032191
      2          1           0       -0.562478   -0.280561   -0.307014
 ---------------------------------------------------------------------
 Stoichiometry    H2
 Framework group  D*H[C*(H.H)]
 Deg. of freedom     1
 Full point group                 D*H     NOp   8
 Largest Abelian subgroup         D2H     NOp   8
 Largest concise Abelian subgroup C2      NOp   2
                         Standard orientation:                         
 ---------------------------------------------------------------------
 Center     Atomic      Atomic             Coordinates (Angstroms)
 Number     Number       Type             X           Y           Z
 ---------------------------------------------------------------------
      1          1           0        0.000000    0.000000    0.381633
      2          1           0        0.000000    0.000000   -0.381633
 ---------------------------------------------------------------------
 Rotational constants (GHZ):           0.0000000        1721.5084528        1721.5084528
 Standard basis: CC-pVDZ (6D, 7F)
 There are     3 symmetry adapted cartesian basis functions of AG  symmetry.
 There are     0 symmetry adapted cartesian basis functions of B1G symmetry.
 There are     1 symmetry adapted cartesian basis functions of B2G symmetry.
 There are     1 symmetry adapted cartesian basis functions of B3G symmetry.
 There are     0 symmetry adapted cartesian basis functions of AU  symmetry.
 There are     3 symmetry adapted cartesian basis functions of B1U symmetry.
 There are     1 symmetry adapted cartesian basis functions of B2U symmetry.
 There are     1 symmetry adapted cartesian basis functions of B3U symmetry.
 There are     3 symmetry adapted basis functions of AG  symmetry.
 There are     0 symmetry adapted basis functions of B1G symmetry.
 There are     1 symmetry adapted basis functions of B2G symmetry.
 There are     1 symmetry adapted basis functions of B3G symmetry.
 There are     0 symmetry adapted basis functions of AU  symmetry.
 There are     3 symmetry adapted basis functions of B1U symmetry.
 There are     1 symmetry adapted basis functions of B2U symmetry.
 There are     1 symmetry adapted basis functions of B3U symmetry.
    10 basis functions,    14 primitive gaussians,    10 cartesian basis functions
     1 alpha electrons        1 beta electrons
       nuclear repulsion energy         0.6933055657 Hartrees.
 NAtoms=    2 NActive=    2 NUniq=    1 SFac= 4.00D+00 NAtFMM=   60 NAOKFM=F Big=F
 Integral buffers will be    131072 words long.
 Raffenetti 2 integral format.
 Two-electron integral symmetry is turned on.
 One-electron integrals computed using PRISM.
 NBasis=    10 RedAO= T EigKep=  4.97D-02  NBF=     3     0     1     1     0     3     1     1
 NBsUse=    10 1.00D-06 EigRej= -1.00D+00 NBFU=     3     0     1     1     0     3     1     1
 Initial guess from the checkpoint file:  "H2_opt.chk"
 B after Tr=     0.000000    0.000000    0.000000
         Rot=    1.000000    0.000000    0.000000    0.000000 Ang=   0.00 deg.
 Initial guess orbital symmetries:
       Occupied  (SGG)
       Virtual   (SGU) (SGG) (SGU) (PIU) (PIU) (SGG) (PIG) (PIG)
                 (SGU)
 Keep R1 ints in memory in symmetry-blocked form, NReq=3446976.
 Requested convergence on RMS density matrix=1.00D-08 within 128 cycles.
 Requested convergence on MAX density matrix=1.00D-06.
 Requested convergence on             energy=1.00D-06.
 No special actions if energy rises.
 SCF Done:  E(RB3LYP) =  -1.17360053203     A.U. after    4 cycles
            NFock=  4  Conv=0.13D-08     -V/T= 2.0840
 Calling FoFJK, ICntrl=      2127 FMM=F ISym2X=1 I1Cent= 0 IOpClX= 0 NMat=1 NMatS=1 NMatT=0.
 ***** Axes restored to original set *****
 -------------------------------------------------------------------
 Center     Atomic                   Forces (Hartrees/Bohr)
 Number     Number              X              Y              Z
 -------------------------------------------------------------------
      1        1          -0.000331425   -0.000927595   -0.000380168
      2        1           0.000331425    0.000927595    0.000380168
 -------------------------------------------------------------------
 Cartesian Forces:  Max     0.000927595 RMS     0.000609591

 GradGradGradGradGradGradGradGradGradGradGradGradGradGradGradGradGradGrad
 Berny optimization.
 Using GEDIIS/GDIIS optimizer.
 Internal  Forces:  Max     0.001055842 RMS     0.001055842
 Search for a local minimum.
 Step number   3 out of a maximum of   20
 All quantities printed in internal units (Hartrees-Bohrs-Radians)
 Mixed Optimization -- RFO/linear search
 Update second derivatives using D2CorX and points    2    3
 DE= -2.37D-04 DEPred=-3.63D-05 R= 6.53D+00
 TightC=F SS=  1.41D+00  RLast= 3.84D-02 DXNew= 8.4853D-01 1.1530D-01
 Trust test= 6.53D+00 RLast= 3.84D-02 DXMaxT set to 5.05D-01
 The second derivative matrix:
                          R1
           R1           0.38423
 ITU=  1  1
 Use linear search instead of GDIIS.
     Eigenvalues ---    0.38423
 RFO step:  Lambda= 0.00000000D+00 EMin= 3.84233026D-01
 Quartic linear search produced a step of -0.07590.
 Iteration  1 RMS(Cart)=  0.00206260 RMS(Int)=  0.00000000
 Iteration  2 RMS(Cart)=  0.00000000 RMS(Int)=  0.00000000
 ClnCor:  largest displacement from symmetrization is 2.22D-16 for atom     1.
 Variable       Old X    -DE/DX   Delta X   Delta X   Delta X     New X
                                 (Linear)    (Quad)   (Total)
    R1        1.44237  -0.00106  -0.00292   0.00000  -0.00292   1.43945
         Item               Value     Threshold  Converged?
 Maximum Force            0.001056     0.000450     NO 
 RMS     Force            0.001056     0.000300     NO 
 Maximum Displacement     0.001281     0.001800     YES
 RMS     Displacement     0.002063     0.001200     NO 
 Predicted change in Energy=-1.445196D-06
 GradGradGradGradGradGradGradGradGradGradGradGradGradGradGradGradGradGrad

                          Input orientation:                          
 ---------------------------------------------------------------------
 Center     Atomic      Atomic             Coordinates (Angstroms)
 Number     Number       Type             X           Y           Z
 ---------------------------------------------------------------------
      1          1           0       -0.323133    0.389318   -0.032469
      2          1           0       -0.562235   -0.279883   -0.306736
 ---------------------------------------------------------------------
 Stoichiometry    H2
 Framework group  D*H[C*(H.H)]
 Deg. of freedom     1
 Full point group                 D*H     NOp   8
 Largest Abelian subgroup         D2H     NOp   8
 Largest concise Abelian subgroup C2      NOp   2
                         Standard orientation:                         
 ---------------------------------------------------------------------
 Center     Atomic      Atomic             Coordinates (Angstroms)
 Number     Number       Type             X           Y           Z
 ---------------------------------------------------------------------
      1          1           0        0.000000    0.000000    0.380862
      2          1           0        0.000000    0.000000   -0.380862
 ---------------------------------------------------------------------
 Rotational constants (GHZ):           0.0000000        1728.4925860        1728.4925860
 Standard basis: CC-pVDZ (6D, 7F)
 There are     3 symmetry adapted cartesian basis functions of AG  symmetry.
 There are     0 symmetry adapted cartesian basis functions of B1G symmetry.
 There are     1 symmetry adapted cartesian basis functions of B2G symmetry.
 There are     1 symmetry adapted cartesian basis functions of B3G symmetry.
 There are     0 symmetry adapted cartesian basis functions of AU  symmetry.
 There are     3 symmetry adapted cartesian basis functions of B1U symmetry.
 There are     1 symmetry adapted cartesian basis functions of B2U symmetry.
 There are     1 symmetry adapted cartesian basis functions of B3U symmetry.
 There are     3 symmetry adapted basis functions of AG  symmetry.
 There are     0 symmetry adapted basis functions of B1G symmetry.
 There are     1 symmetry adapted basis functions of B2G symmetry.
 There are     1 symmetry adapted basis functions of B3G symmetry.
 There are     0 symmetry adapted basis functions of AU  symmetry.
 There are     3 symmetry adapted basis functions of B1U symmetry.
 There are     1 symmetry adapted basis functions of B2U symmetry.
 There are     1 symmetry adapted basis functions of B3U symmetry.
    10 basis functions,    14 primitive gaussians,    10 cartesian basis functions
     1 alpha electrons        1 beta electrons
       nuclear repulsion energy         0.6947105072 Hartrees.
 NAtoms=    2 NActive=    2 NUniq=    1 SFac= 4.00D+00 NAtFMM=   60 NAOKFM=F Big=F
 Integral buffers will be    131072 words long.
 Raffenetti 2 integral format.
 Two-electron integral symmetry is turned on.
 One-electron integrals computed using PRISM.
 NBasis=    10 RedAO= T EigKep=  4.93D-02  NBF=     3     0     1     1     0     3     1     1
 NBsUse=    10 1.00D-06 EigRej= -1.00D+00 NBFU=     3     0     1     1     0     3     1     1
 Initial guess from the checkpoint file:  "H2_opt.chk"
 B after Tr=     0.000000    0.000000    0.000000
         Rot=    1.000000    0.000000    0.000000    0.000000 Ang=   0.00 deg.
 Initial guess orbital symmetries:
       Occupied  (SGG)
       Virtual   (SGU) (SGG) (SGU) (PIU) (PIU) (SGG) (PIG) (PIG)
                 (SGU)
 Keep R1 ints in memory in symmetry-blocked form, NReq=3446976.
 Requested convergence on RMS density matrix=1.00D-08 within 128 cycles.
 Requested convergence on MAX density matrix=1.00D-06.
 Requested convergence on             energy=1.00D-06.
 No special actions if energy rises.
 SCF Done:  E(RB3LYP) =  -1.17360207358     A.U. after    4 cycles
            NFock=  4  Conv=0.73D-11     -V/T= 2.0827
 Calling FoFJK, ICntrl=      2127 FMM=F ISym2X=1 I1Cent= 0 IOpClX= 0 NMat=1 NMatS=1 NMatT=0.
 ***** Axes restored to original set *****
 -------------------------------------------------------------------
 Center     Atomic                   Forces (Hartrees/Bohr)
 Number     Number              X              Y              Z
 -------------------------------------------------------------------
      1        1           0.000000180    0.000000504    0.000000206
      2        1          -0.000000180   -0.000000504   -0.000000206
 -------------------------------------------------------------------
 Cartesian Forces:  Max     0.000000504 RMS     0.000000331

 GradGradGradGradGradGradGradGradGradGradGradGradGradGradGradGradGradGrad
 Berny optimization.
 Using GEDIIS/GDIIS optimizer.
 Internal  Forces:  Max     0.000000573 RMS     0.000000573
 Search for a local minimum.
 Step number   4 out of a maximum of   20
 All quantities printed in internal units (Hartrees-Bohrs-Radians)
 Mixed Optimization -- En-DIIS/RFO-DIIS
 Update second derivatives using D2CorX and points    3    4
 DE= -1.54D-06 DEPred=-1.45D-06 R= 1.07D+00
 TightC=F SS=  1.41D+00  RLast= 2.92D-03 DXNew= 8.4853D-01 8.7509D-03
 Trust test= 1.07D+00 RLast= 2.92D-03 DXMaxT set to 5.05D-01
 The second derivative matrix:
                          R1
           R1           0.36216
 ITU=  1  1
 Use linear search instead of GDIIS.
     Eigenvalues ---    0.36216
 RFO step:  Lambda= 0.00000000D+00 EMin= 3.62163798D-01
 Quartic linear search produced a step of -0.00054.
 Iteration  1 RMS(Cart)=  0.00000111 RMS(Int)=  0.00000000
 Iteration  2 RMS(Cart)=  0.00000000 RMS(Int)=  0.00000000
 ClnCor:  largest displacement from symmetrization is 3.47D-17 for atom     1.
 Variable       Old X    -DE/DX   Delta X   Delta X   Delta X     New X
                                 (Linear)    (Quad)   (Total)
    R1        1.43945   0.00000   0.00000   0.00000   0.00000   1.43945
         Item               Value     Threshold  Converged?
 Maximum Force            0.000001     0.000450     YES
 RMS     Force            0.000001     0.000300     YES
 Maximum Displacement     0.000001     0.001800     YES
 RMS     Displacement     0.000001     0.001200     YES
 Predicted change in Energy=-4.538949D-13
 Optimization completed.
    -- Stationary point found.
                           ----------------------------
                           !   Optimized Parameters   !
                           ! (Angstroms and Degrees)  !
 --------------------------                            --------------------------
 ! Name  Definition              Value          Derivative Info.                !
 --------------------------------------------------------------------------------
 ! R1    R(1,2)                  0.7617         -DE/DX =    0.0                 !
 --------------------------------------------------------------------------------
 GradGradGradGradGradGradGradGradGradGradGradGradGradGradGradGradGradGrad

                          Input orientation:                          
 ---------------------------------------------------------------------
 Center     Atomic      Atomic             Coordinates (Angstroms)
 Number     Number       Type             X           Y           Z
 ---------------------------------------------------------------------
      1          1           0       -0.323133    0.389318   -0.032469
      2          1           0       -0.562235   -0.279883   -0.306736
 ---------------------------------------------------------------------
 Stoichiometry    H2
 Framework group  D*H[C*(H.H)]
 Deg. of freedom     1
 Full point group                 D*H     NOp   8
 Largest Abelian subgroup         D2H     NOp   8
 Largest concise Abelian subgroup C2      NOp   2
                         Standard orientation:                         
 ---------------------------------------------------------------------
 Center     Atomic      Atomic             Coordinates (Angstroms)
 Number     Number       Type             X           Y           Z
 ---------------------------------------------------------------------
      1          1           0        0.000000    0.000000    0.380862
      2          1           0        0.000000    0.000000   -0.380862
 ---------------------------------------------------------------------
 Rotational constants (GHZ):           0.0000000        1728.4925860        1728.4925860

 **********************************************************************

            Population analysis using the SCF density.

 **********************************************************************

 Orbital symmetries:
       Occupied  (SGG)
       Virtual   (SGU) (SGG) (SGU) (PIU) (PIU) (SGG) (PIG) (PIG)
                 (SGU)
 The electronic state is 1-SGG.
 Alpha  occ. eigenvalues --   -0.42572
 Alpha virt. eigenvalues --    0.07047   0.33269   0.69495   1.04757   1.04757
 Alpha virt. eigenvalues --    1.66206   1.76420   1.76420   3.14543
          Condensed to atoms (all electrons):
               1          2
     1  H    0.586438   0.413562
     2  H    0.413562   0.586438
 Mulliken charges:
               1
     1  H    0.000000
     2  H    0.000000
 Sum of Mulliken charges =   0.00000
 Mulliken charges with hydrogens summed into heavy atoms:
               1
 Electronic spatial extent (au):  <R**2>=              5.1556
 Charge=              0.0000 electrons
 Dipole moment (field-independent basis, Debye):
    X=              0.0000    Y=              0.0000    Z=              0.0000  Tot=              0.0000
 Quadrupole moment (field-independent basis, Debye-Ang):
   XX=             -2.0438   YY=             -2.0438   ZZ=             -1.4534
   XY=              0.0000   XZ=              0.0000   YZ=              0.0000
 Traceless Quadrupole moment (field-independent basis, Debye-Ang):
   XX=             -0.1968   YY=             -0.1968   ZZ=              0.3936
   XY=              0.0000   XZ=              0.0000   YZ=              0.0000
 Octapole moment (field-independent basis, Debye-Ang**2):
  XXX=              0.0000  YYY=              0.0000  ZZZ=              0.0000  XYY=              0.0000
  XXY=              0.0000  XXZ=              0.0000  XZZ=              0.0000  YZZ=              0.0000
  YYZ=              0.0000  XYZ=              0.0000
 Hexadecapole moment (field-independent basis, Debye-Ang**3):
 XXXX=             -1.9280 YYYY=             -1.9280 ZZZZ=             -2.8318 XXXY=              0.0000
 XXXZ=              0.0000 YYYX=              0.0000 YYYZ=              0.0000 ZZZX=              0.0000
 ZZZY=              0.0000 XXYY=             -0.6427 XXZZ=             -0.8112 YYZZ=             -0.8112
 XXYZ=              0.0000 YYXZ=              0.0000 ZZXY=              0.0000
 N-N= 6.947105071806D-01 E-N=-3.559452668822D+00  KE= 1.083911763598D+00
 Symmetry AG   KE= 1.083911763598D+00
 Symmetry B1G  KE= 0.000000000000D+00
 Symmetry B2G  KE= 7.978319644420D-35
 Symmetry B3G  KE= 9.589760726196D-33
 Symmetry AU   KE= 0.000000000000D+00
 Symmetry B1U  KE= 7.655985076250D-33
 Symmetry B2U  KE= 9.721400432116D-34
 Symmetry B3U  KE= 3.630089678138D-35
 1\1\GINC-LSQC03\FOpt\RB3LYP\CC-pVDZ\H2\QINGCHUN\11-Nov-2019\0\\# opt f
 req b3lyp/cc-pVDZ 6D\\sto-6g 6D meta_Lowdin trans_dipo\\0,1\H,-0.32313
 32173,0.3893178365,-0.0324691088\H,-0.5622352927,-0.2798833265,-0.3067
 362312\\Version=ES64L-G16RevA.03\State=1-SGG\HF=-1.1736021\RMSD=7.340e
 -12\RMSF=3.310e-07\Dipole=0.,0.,0.\Quadrupole=-0.1030584,0.1924607,-0.
 0894023,0.1210392,0.049607,0.1388406\PG=D*H [C*(H1.H1)]\\@


 THE ONLY EXISTING THINGS ARE ATOMS AND EMPTY SPACE;
 ALL ELSE IS MERE OPINION. -- DEMOCRITUS OF ABDERA D. 370 B.C.
 EXPERIMENTS ARE THE ONLY MEANS OF KNOWLEDGE AT OUR DISPOSAL
 THE REST IS POETRY, IMAGINATION. -- MAX PLANCK
 Job cpu time:       0 days  0 hours  0 minutes 11.9 seconds.
 Elapsed time:       0 days  0 hours  0 minutes  3.7 seconds.
 File lengths (MBytes):  RWF=      6 Int=      0 D2E=      0 Chk=      1 Scr=      1
 Normal termination of Gaussian 16 at Mon Nov 11 15:49:06 2019.
 Link1:  Proceeding to internal job step number  2.
 -------------------------------------------------------------------
 #N Geom=AllCheck Guess=TCheck SCRF=Check GenChk RB3LYP/CC-pVDZ Freq
 -------------------------------------------------------------------
 1/10=4,29=7,30=1,38=1,40=1/1,3;
 2/12=2,40=1/2;
 3/5=16,8=2,11=2,14=-4,25=1,30=1,70=2,71=2,74=-5,116=1,140=1/1,2,3;
 4/5=101/1;
 5/5=2,38=6,98=1/2;
 8/6=4,10=90,11=11/1;
 11/6=1,8=1,9=11,15=111,16=1/1,2,10;
 10/6=1/2;
 6/7=2,8=2,9=2,10=2,28=1/1;
 7/8=1,10=1,25=1/1,2,3,16;
 1/10=4,30=1/3;
 99//99;
 Structure from the checkpoint file:  "H2_opt.chk"
 --------------------------------
 sto-6g 6D meta_Lowdin trans_dipo
 --------------------------------
 Charge =  0 Multiplicity = 1
 Redundant internal coordinates found in file.  (old form).
 H,0,-0.3231332173,0.3893178365,-0.0324691088
 H,0,-0.5622352927,-0.2798833265,-0.3067362312
 Recover connectivity data from disk.

 GradGradGradGradGradGradGradGradGradGradGradGradGradGradGradGradGradGrad
 Berny optimization.
 Initialization pass.
                           ----------------------------
                           !    Initial Parameters    !
                           ! (Angstroms and Degrees)  !
 --------------------------                            --------------------------
 ! Name  Definition              Value          Derivative Info.                !
 --------------------------------------------------------------------------------
 ! R1    R(1,2)                  0.7617         calculate D2E/DX2 analytically  !
 --------------------------------------------------------------------------------
 Trust Radius=3.00D-01 FncErr=1.00D-07 GrdErr=1.00D-07 EigMax=2.50D+02 EigMin=1.00D-04
 Number of steps in this run=      2 maximum allowed number of steps=      2.
 GradGradGradGradGradGradGradGradGradGradGradGradGradGradGradGradGradGrad

                          Input orientation:                          
 ---------------------------------------------------------------------
 Center     Atomic      Atomic             Coordinates (Angstroms)
 Number     Number       Type             X           Y           Z
 ---------------------------------------------------------------------
      1          1           0       -0.323133    0.389318   -0.032469
      2          1           0       -0.562235   -0.279883   -0.306736
 ---------------------------------------------------------------------
 Stoichiometry    H2
 Framework group  D*H[C*(H.H)]
 Deg. of freedom     1
 Full point group                 D*H     NOp   8
 Largest Abelian subgroup         D2H     NOp   8
 Largest concise Abelian subgroup C2      NOp   2
                         Standard orientation:                         
 ---------------------------------------------------------------------
 Center     Atomic      Atomic             Coordinates (Angstroms)
 Number     Number       Type             X           Y           Z
 ---------------------------------------------------------------------
      1          1           0        0.000000    0.000000    0.380862
      2          1           0        0.000000    0.000000   -0.380862
 ---------------------------------------------------------------------
 Rotational constants (GHZ):           0.0000000        1728.4925860        1728.4925860
 Standard basis: CC-pVDZ (6D, 7F)
 There are     3 symmetry adapted cartesian basis functions of AG  symmetry.
 There are     0 symmetry adapted cartesian basis functions of B1G symmetry.
 There are     1 symmetry adapted cartesian basis functions of B2G symmetry.
 There are     1 symmetry adapted cartesian basis functions of B3G symmetry.
 There are     0 symmetry adapted cartesian basis functions of AU  symmetry.
 There are     3 symmetry adapted cartesian basis functions of B1U symmetry.
 There are     1 symmetry adapted cartesian basis functions of B2U symmetry.
 There are     1 symmetry adapted cartesian basis functions of B3U symmetry.
 There are     3 symmetry adapted basis functions of AG  symmetry.
 There are     0 symmetry adapted basis functions of B1G symmetry.
 There are     1 symmetry adapted basis functions of B2G symmetry.
 There are     1 symmetry adapted basis functions of B3G symmetry.
 There are     0 symmetry adapted basis functions of AU  symmetry.
 There are     3 symmetry adapted basis functions of B1U symmetry.
 There are     1 symmetry adapted basis functions of B2U symmetry.
 There are     1 symmetry adapted basis functions of B3U symmetry.
    10 basis functions,    14 primitive gaussians,    10 cartesian basis functions
     1 alpha electrons        1 beta electrons
       nuclear repulsion energy         0.6947105072 Hartrees.
 NAtoms=    2 NActive=    2 NUniq=    1 SFac= 4.00D+00 NAtFMM=   60 NAOKFM=F Big=F
 Integral buffers will be    131072 words long.
 Raffenetti 2 integral format.
 Two-electron integral symmetry is turned on.
 One-electron integrals computed using PRISM.
 NBasis=    10 RedAO= T EigKep=  4.93D-02  NBF=     3     0     1     1     0     3     1     1
 NBsUse=    10 1.00D-06 EigRej= -1.00D+00 NBFU=     3     0     1     1     0     3     1     1
 Initial guess from the checkpoint file:  "H2_opt.chk"
 B after Tr=     0.000000    0.000000    0.000000
         Rot=    1.000000    0.000000    0.000000    0.000000 Ang=   0.00 deg.
 Initial guess orbital symmetries:
       Occupied  (SGG)
       Virtual   (SGU) (SGG) (SGU) (PIU) (PIU) (SGG) (PIG) (PIG)
                 (SGU)
 Keep R1 ints in memory in symmetry-blocked form, NReq=3446976.
 Requested convergence on RMS density matrix=1.00D-08 within 128 cycles.
 Requested convergence on MAX density matrix=1.00D-06.
 Requested convergence on             energy=1.00D-06.
 No special actions if energy rises.
 Skip diagonalization as Alpha Fock matrix is already diagonal.
 SCF Done:  E(RB3LYP) =  -1.17360207358     A.U. after    1 cycles
            NFock=  1  Conv=0.00D+00     -V/T= 2.0827
 DoSCS=F DFT=T ScalE2(SS,OS)=  1.000000  1.000000
 Range of M.O.s used for correlation:     1    10
 NBasis=    10 NAE=     1 NBE=     1 NFC=     0 NFV=     0
 NROrb=     10 NOA=     1 NOB=     1 NVA=     9 NVB=     9
 Symmetrizing basis deriv contribution to polar:
 IMax=3 JMax=2 DiffMx= 0.00D+00
 G2DrvN: will do     3 centers at a time, making    1 passes.
 Calling FoFCou, ICntrl=  3107 FMM=F I1Cent=   0 AccDes= 0.00D+00.
 End of G2Drv F.D. properties file   721 does not exist.
 End of G2Drv F.D. properties file   722 does not exist.
 End of G2Drv F.D. properties file   788 does not exist.
          IDoAtm=11
          Differentiating once with respect to electric field.
                with respect to dipole field.
          Differentiating once with respect to nuclear coordinates.
 Keep R1 ints in memory in symmetry-blocked form, NReq=3434973.
          There are     6 degrees of freedom in the 1st order CPHF.  IDoFFX=4 NUNeed=     6.
      6 vectors produced by pass  0 Test12= 1.50D-16 1.67D-08 XBig12= 4.02D+00 1.99D+00.
 AX will form     6 AO Fock derivatives at one time.
      2 vectors produced by pass  1 Test12= 1.50D-16 1.67D-08 XBig12= 7.22D-02 2.64D-01.
      1 vectors produced by pass  2 Test12= 1.50D-16 1.67D-08 XBig12= 2.28D-06 1.50D-03.
 InvSVY:  IOpt=1 It=  1 EMax= 3.03D-17
 Solved reduced A of dimension     9 with     6 vectors.
 Isotropic polarizability for W=    0.000000        3.04 Bohr**3.
 End of Minotr F.D. properties file   721 does not exist.
 End of Minotr F.D. properties file   722 does not exist.
 End of Minotr F.D. properties file   788 does not exist.

 **********************************************************************

            Population analysis using the SCF density.

 **********************************************************************

 Orbital symmetries:
       Occupied  (SGG)
       Virtual   (SGU) (SGG) (SGU) (PIU) (PIU) (SGG) (PIG) (PIG)
                 (SGU)
 The electronic state is 1-SGG.
 Alpha  occ. eigenvalues --   -0.42572
 Alpha virt. eigenvalues --    0.07047   0.33269   0.69495   1.04757   1.04757
 Alpha virt. eigenvalues --    1.66206   1.76420   1.76420   3.14543
          Condensed to atoms (all electrons):
               1          2
     1  H    0.586438   0.413562
     2  H    0.413562   0.586438
 Mulliken charges:
               1
     1  H    0.000000
     2  H    0.000000
 Sum of Mulliken charges =   0.00000
 Mulliken charges with hydrogens summed into heavy atoms:
               1
 APT charges:
               1
     1  H    0.000000
     2  H    0.000000
 Sum of APT charges =   0.00000
 APT charges with hydrogens summed into heavy atoms:
               1
 Electronic spatial extent (au):  <R**2>=              5.1556
 Charge=              0.0000 electrons
 Dipole moment (field-independent basis, Debye):
    X=              0.0000    Y=              0.0000    Z=              0.0000  Tot=              0.0000
 Quadrupole moment (field-independent basis, Debye-Ang):
   XX=             -2.0438   YY=             -2.0438   ZZ=             -1.4534
   XY=              0.0000   XZ=              0.0000   YZ=              0.0000
 Traceless Quadrupole moment (field-independent basis, Debye-Ang):
   XX=             -0.1968   YY=             -0.1968   ZZ=              0.3936
   XY=              0.0000   XZ=              0.0000   YZ=              0.0000
 Octapole moment (field-independent basis, Debye-Ang**2):
  XXX=              0.0000  YYY=              0.0000  ZZZ=              0.0000  XYY=              0.0000
  XXY=              0.0000  XXZ=              0.0000  XZZ=              0.0000  YZZ=              0.0000
  YYZ=              0.0000  XYZ=              0.0000
 Hexadecapole moment (field-independent basis, Debye-Ang**3):
 XXXX=             -1.9280 YYYY=             -1.9280 ZZZZ=             -2.8318 XXXY=              0.0000
 XXXZ=              0.0000 YYYX=              0.0000 YYYZ=              0.0000 ZZZX=              0.0000
 ZZZY=              0.0000 XXYY=             -0.6427 XXZZ=             -0.8112 YYZZ=             -0.8112
 XXYZ=              0.0000 YYXZ=              0.0000 ZZXY=              0.0000
 N-N= 6.947105071806D-01 E-N=-3.559452668822D+00  KE= 1.083911763598D+00
 Symmetry AG   KE= 1.083911763598D+00
 Symmetry B1G  KE= 0.000000000000D+00
 Symmetry B2G  KE= 4.550013743017D-34
 Symmetry B3G  KE= 3.360860853378D-33
 Symmetry AU   KE= 0.000000000000D+00
 Symmetry B1U  KE= 3.381086295860D-31
 Symmetry B2U  KE= 1.935793036194D-35
 Symmetry B3U  KE= 1.730604364527D-35
  Exact polarizability:   1.191   0.000   1.191   0.000   0.000   6.728
 Approx polarizability:   1.270   0.000   1.270   0.000   0.000   8.144
 Calling FoFJK, ICntrl=    100127 FMM=F ISym2X=1 I1Cent= 0 IOpClX= 0 NMat=1 NMatS=1 NMatT=0.
 Full mass-weighted force constant matrix:
 Low frequencies ---   -4.3123   -4.3123   -0.0001    0.0000    0.0000 4368.3936
 Diagonal vibrational polarizability:
        0.0000000       0.0000000       0.0000000
 Harmonic frequencies (cm**-1), IR intensities (KM/Mole), Raman scattering
 activities (A**4/AMU), depolarization ratios for plane and unpolarized
 incident light, reduced masses (AMU), force constants (mDyne/A),
 and normal coordinates:
                      1
                     SGG
 Frequencies --   4368.3936
 Red. masses --      1.0078
 Frc consts  --     11.3313
 IR Inten    --      0.0000
  Atom  AN      X      Y      Z
     1   1     0.00   0.00   0.71
     2   1     0.00   0.00  -0.71

 -------------------
 - Thermochemistry -
 -------------------
 Temperature   298.150 Kelvin.  Pressure   1.00000 Atm.
 Atom     1 has atomic number  1 and mass   1.00783
 Atom     2 has atomic number  1 and mass   1.00783
 Molecular mass:     2.01565 amu.
 Principal axes and moments of inertia in atomic units:
                           1         2         3
     Eigenvalues --     0.00000   1.04411   1.04411
           X            0.00000   0.80506  -0.59320
           Y            0.00000   0.59320   0.80506
           Z            1.00000   0.00000   0.00000
 This molecule is a prolate symmetric top.
 Rotational symmetry number  2.
 Rotational temperature (Kelvin)     82.95457
 Rotational constant (GHZ):        1728.492586
 Zero-point vibrational energy      26128.8 (Joules/Mol)
                                    6.24493 (Kcal/Mol)
 Vibrational temperatures:   6285.14
          (Kelvin)
 
 Zero-point correction=                           0.009952 (Hartree/Particle)
 Thermal correction to Energy=                    0.012312
 Thermal correction to Enthalpy=                  0.013257
 Thermal correction to Gibbs Free Energy=        -0.001583
 Sum of electronic and zero-point Energies=             -1.163650
 Sum of electronic and thermal Energies=                -1.161290
 Sum of electronic and thermal Enthalpies=              -1.160345
 Sum of electronic and thermal Free Energies=           -1.175185
 
                     E (Thermal)             CV                S
                      KCal/Mol        Cal/Mol-Kelvin    Cal/Mol-Kelvin
 Total                    7.726              4.968             31.232
 Electronic               0.000              0.000              0.000
 Translational            0.889              2.981             28.080
 Rotational               0.592              1.987              3.152
 Vibrational              6.245              0.000              0.000
                       Q            Log10(Q)             Ln(Q)
 Total Bot       0.534655D+01          0.728074          1.676452
 Total V=0       0.202135D+06          5.305641         12.216690
 Vib (Bot)       0.264504D-04         -4.577567        -10.540238
 Vib (V=0)       0.100000D+01          0.000000          0.000000
 Electronic      0.100000D+01          0.000000          0.000000
 Translational   0.112480D+06          5.051077         11.630534
 Rotational      0.179707D+01          0.254565          0.586156
 ***** Axes restored to original set *****
 -------------------------------------------------------------------
 Center     Atomic                   Forces (Hartrees/Bohr)
 Number     Number              X              Y              Z
 -------------------------------------------------------------------
      1        1           0.000000180    0.000000504    0.000000206
      2        1          -0.000000180   -0.000000504   -0.000000206
 -------------------------------------------------------------------
 Cartesian Forces:  Max     0.000000504 RMS     0.000000331
 FormGI is forming the generalized inverse of G from B-inverse, IUseBI=4.

 GradGradGradGradGradGradGradGradGradGradGradGradGradGradGradGradGradGrad
 Berny optimization.
 Internal  Forces:  Max     0.000000573 RMS     0.000000573
 Search for a local minimum.
 Step number   1 out of a maximum of    2
 All quantities printed in internal units (Hartrees-Bohrs-Radians)
 Second derivative matrix not updated -- analytic derivatives used.
 The second derivative matrix:
                          R1
           R1           0.36391
 ITU=  0
     Eigenvalues ---    0.36391
 Angle between quadratic step and forces=  90.00 degrees.
 Linear search not attempted -- first point.
 Iteration  1 RMS(Cart)=  0.00000111 RMS(Int)=  0.00000000
 Iteration  2 RMS(Cart)=  0.00000000 RMS(Int)=  0.00000000
 ClnCor:  largest displacement from symmetrization is 4.15D-16 for atom     2.
 Variable       Old X    -DE/DX   Delta X   Delta X   Delta X     New X
                                 (Linear)    (Quad)   (Total)
    R1        1.43945   0.00000   0.00000   0.00000   0.00000   1.43945
         Item               Value     Threshold  Converged?
 Maximum Force            0.000001     0.000450     YES
 RMS     Force            0.000001     0.000300     YES
 Maximum Displacement     0.000001     0.001800     YES
 RMS     Displacement     0.000001     0.001200     YES
 Predicted change in Energy=-4.517313D-13
 Optimization completed.
    -- Stationary point found.
                           ----------------------------
                           !   Optimized Parameters   !
                           ! (Angstroms and Degrees)  !
 --------------------------                            --------------------------
 ! Name  Definition              Value          Derivative Info.                !
 --------------------------------------------------------------------------------
 ! R1    R(1,2)                  0.7617         -DE/DX =    0.0                 !
 --------------------------------------------------------------------------------
 GradGradGradGradGradGradGradGradGradGradGradGradGradGradGradGradGradGrad

 Dipole is zero, so no output in dipole orientation.

 ----------------------------------------------------------------------

 Electric dipole moment (input orientation):
 (Debye = 10**-18 statcoulomb cm , SI units = C m)
                  (au)            (Debye)         (10**-30 SI)
   Tot        0.000000D+00      0.000000D+00      0.000000D+00
   x          0.000000D+00      0.000000D+00      0.000000D+00
   y          0.000000D+00      0.000000D+00      0.000000D+00
   z          0.000000D+00      0.000000D+00      0.000000D+00

 Dipole polarizability, Alpha (input orientation).
 (esu units = cm**3 , SI units = C**2 m**2 J**-1)
 Alpha(0;0):
               (au)            (10**-24 esu)      (10**-40 SI)
   iso        0.303628D+01      0.449931D+00      0.500616D+00
   aniso      0.553697D+01      0.820494D+00      0.912923D+00
   xx         0.173619D+01      0.257277D+00      0.286259D+00
   yx         0.152693D+01      0.226267D+00      0.251756D+00
   yy         0.546420D+01      0.809711D+00      0.900925D+00
   zx         0.625799D+00      0.927338D-01      0.103180D+00
   zy         0.175149D+01      0.259544D+00      0.288782D+00
   zz         0.190846D+01      0.282805D+00      0.314663D+00

 ----------------------------------------------------------------------
 1\1\GINC-LSQC03\Freq\RB3LYP\CC-pVDZ\H2\QINGCHUN\11-Nov-2019\0\\#N Geom
 =AllCheck Guess=TCheck SCRF=Check GenChk RB3LYP/CC-pVDZ Freq\\sto-6g 6
 D meta_Lowdin trans_dipo\\0,1\H,-0.3231332173,0.3893178365,-0.03246910
 88\H,-0.5622352927,-0.2798833265,-0.3067362312\\Version=ES64L-G16RevA.
 03\State=1-SGG\HF=-1.1736021\RMSD=0.000e+00\RMSF=3.310e-07\ZeroPoint=0
 .0099519\Thermal=0.0123124\Dipole=0.,0.,0.\DipoleDeriv=0.,0.,0.,0.,0.,
 0.,0.,0.,0.,0.,0.,0.,0.,0.,0.,0.,0.,0.\Polar=1.7361901,1.5269252,5.464
 2004,0.6257989,1.751492,1.9084637\Quadrupole=-0.1030584,0.1924607,-0.0
 894023,0.1210392,0.049607,0.1388406\PG=D*H [C*(H1.H1)]\NImag=0\\0.0358
 5572,0.10035431,0.28087225,0.04112947,0.11511355,0.04717808,-0.0358557
 2,-0.10035431,-0.04112947,0.03585572,-0.10035431,-0.28087225,-0.115113
 55,0.10035431,0.28087225,-0.04112947,-0.11511355,-0.04717808,0.0411294
 7,0.11511355,0.04717808\\-0.00000018,-0.00000050,-0.00000021,0.0000001
 8,0.00000050,0.00000021\\\@


 I FIND THAT THE THREE TRULY GREAT TIMES FOR THINKING THOUGHTS
 ARE WHEN I AM STANDING IN THE SHOWER, SITTING ON THE JOHN, OR WALKING.

                                    -- COLIN FLETCHER
 Job cpu time:       0 days  0 hours  0 minutes  6.3 seconds.
 Elapsed time:       0 days  0 hours  0 minutes  2.5 seconds.
 File lengths (MBytes):  RWF=      6 Int=      0 D2E=      0 Chk=      1 Scr=      1
 Normal termination of Gaussian 16 at Mon Nov 11 15:49:08 2019.
