Title section
Stability RHF                                                         6-31G
Number of atoms                            I               13
Info1-9                                    I   N=           9
          24          23           0           0           0         110
           7           1           2
Full Title                                 C   N=           2
Title section
Route                                      C   N=          11
#p int=(nobasistransform) nosymm pop=full punch=gamessinput
gfprint uhf/6-31g 6D 10F guess=mix SCF=(xqc, maxcycle=500) s
table=opt
Charge                                     I                0
Multiplicity                               I                1
Number of electrons                        I               38
Number of alpha electrons                  I               19
Number of beta electrons                   I               19
Number of basis functions                  I               61
Number of independent functions            I               61
Number of point charges in /Mol/           I                0
Number of translation vectors              I                0
Atomic numbers                             I   N=          13
           6           1           1           6           1           6
           1           1           6           1           6           1
           1
Nuclear charges                            R   N=          13
  6.00000000E+00  1.00000000E+00  1.00000000E+00  6.00000000E+00  1.00000000E+00
  6.00000000E+00  1.00000000E+00  1.00000000E+00  6.00000000E+00  1.00000000E+00
  6.00000000E+00  1.00000000E+00  1.00000000E+00
Current cartesian coordinates              R   N=          39
  0.00000000E+00  0.00000000E+00  0.00000000E+00  0.00000000E+00  0.00000000E+00
  2.06942179E+00  1.84080346E+00  0.00000000E+00 -9.37054449E-01 -6.45799902E+00
 -3.10524143E-02 -3.95489728E+00 -6.38056447E+00 -1.93327864E-02 -6.02710165E+00
 -1.43158497E+01  8.19339894E-03 -5.58932138E-01 -1.41555598E+01 -9.73387155E-02
  1.52053479E+00 -1.53602216E+01 -1.68896039E+00 -1.18359094E+00 -1.87757956E+01
  6.97665775E+00 -2.75569698E+00 -1.79606866E+01  8.78532931E+00 -2.15193929E+00
 -2.52307783E+01  6.95232991E+00 -6.71547286E+00 -2.60966783E+01  5.18675138E+00
 -7.36003843E+00 -2.62117405E+01  8.70625230E+00 -7.19300975E+00
Number of symbols in /Mol/                 I                0
Force Field                                I                0
Atom Types                                 C   N=          13



Int Atom Types                             I   N=          13
           0           0           0           0           0           0
           0           0           0           0           0           0
           0
MM charges                                 R   N=          13
  0.00000000E+00  0.00000000E+00  0.00000000E+00  0.00000000E+00  0.00000000E+00
  0.00000000E+00  0.00000000E+00  0.00000000E+00  0.00000000E+00  0.00000000E+00
  0.00000000E+00  0.00000000E+00  0.00000000E+00
Integer atomic weights                     I   N=          13
          12           1           1          12           1          12
           1           1          12           1          12           1
           1
Real atomic weights                        R   N=          13
  1.20000000E+01  1.00782504E+00  1.00782504E+00  1.20000000E+01  1.00782504E+00
  1.20000000E+01  1.00782504E+00  1.00782504E+00  1.20000000E+01  1.00782504E+00
  1.20000000E+01  1.00782504E+00  1.00782504E+00
Atom fragment info                         I   N=          13
           0           0           0           0           0           0
           0           0           0           0           0           0
           0
Atom residue num                           I   N=          13
           0           0           0           0           0           0
           0           0           0           0           0           0
           0
Nuclear spins                              I   N=          13
           0           1           1           0           1           0
           1           1           0           1           0           1
           1
Nuclear ZEff                               R   N=          13
 -3.60000000E+00 -1.00000000E+00 -1.00000000E+00 -3.60000000E+00 -1.00000000E+00
 -3.60000000E+00 -1.00000000E+00 -1.00000000E+00 -3.60000000E+00 -1.00000000E+00
 -3.60000000E+00 -1.00000000E+00 -1.00000000E+00
Nuclear ZNuc                               R   N=          13
  6.00000000E+00  1.00000000E+00  1.00000000E+00  6.00000000E+00  1.00000000E+00
  6.00000000E+00  1.00000000E+00  1.00000000E+00  6.00000000E+00  1.00000000E+00
  6.00000000E+00  1.00000000E+00  1.00000000E+00
Nuclear QMom                               R   N=          13
  0.00000000E+00  0.00000000E+00  0.00000000E+00  0.00000000E+00  0.00000000E+00
  0.00000000E+00  0.00000000E+00  0.00000000E+00  0.00000000E+00  0.00000000E+00
  0.00000000E+00  0.00000000E+00  0.00000000E+00
Nuclear GFac                               R   N=          13
  0.00000000E+00  2.79284600E+00  2.79284600E+00  0.00000000E+00  2.79284600E+00
  0.00000000E+00  2.79284600E+00  2.79284600E+00  0.00000000E+00  2.79284600E+00
  0.00000000E+00  2.79284600E+00  2.79284600E+00
MicOpt                                     I   N=          13
          -1          -1          -1          -1          -1          -1
          -1          -1          -1          -1          -1          -1
          -1
Number of residues                         I                0
Number of secondary structures             I                0
Number of contracted shells                I               31
Number of primitive shells                 I               82
Pure/Cartesian d shells                    I                1
Pure/Cartesian f shells                    I                1
Highest angular momentum                   I                1
Largest degree of contraction              I                6
Shell types                                I   N=          31
           0          -1          -1           0           0           0
           0           0          -1          -1           0           0
           0          -1          -1           0           0           0
           0           0          -1          -1           0           0
           0          -1          -1           0           0           0
           0
Number of primitives per shell             I   N=          31
           6           3           1           3           1           3
           1           6           3           1           3           1
           6           3           1           3           1           3
           1           6           3           1           3           1
           6           3           1           3           1           3
           1
Shell to atom map                          I   N=          31
           1           1           1           2           2           3
           3           4           4           4           5           5
           6           6           6           7           7           8
           8           9           9           9          10          10
          11          11          11          12          12          13
          13
Primitive exponents                        R   N=          82
  3.04752488E+03  4.57369518E+02  1.03948685E+02  2.92101553E+01  9.28666296E+00
  3.16392696E+00  7.86827235E+00  1.88128854E+00  5.44249258E-01  1.68714478E-01
  1.87311370E+01  2.82539436E+00  6.40121692E-01  1.61277759E-01  1.87311370E+01
  2.82539436E+00  6.40121692E-01  1.61277759E-01  3.04752488E+03  4.57369518E+02
  1.03948685E+02  2.92101553E+01  9.28666296E+00  3.16392696E+00  7.86827235E+00
  1.88128854E+00  5.44249258E-01  1.68714478E-01  1.87311370E+01  2.82539436E+00
  6.40121692E-01  1.61277759E-01  3.04752488E+03  4.57369518E+02  1.03948685E+02
  2.92101553E+01  9.28666296E+00  3.16392696E+00  7.86827235E+00  1.88128854E+00
  5.44249258E-01  1.68714478E-01  1.87311370E+01  2.82539436E+00  6.40121692E-01
  1.61277759E-01  1.87311370E+01  2.82539436E+00  6.40121692E-01  1.61277759E-01
  3.04752488E+03  4.57369518E+02  1.03948685E+02  2.92101553E+01  9.28666296E+00
  3.16392696E+00  7.86827235E+00  1.88128854E+00  5.44249258E-01  1.68714478E-01
  1.87311370E+01  2.82539436E+00  6.40121692E-01  1.61277759E-01  3.04752488E+03
  4.57369518E+02  1.03948685E+02  2.92101553E+01  9.28666296E+00  3.16392696E+00
  7.86827235E+00  1.88128854E+00  5.44249258E-01  1.68714478E-01  1.87311370E+01
  2.82539436E+00  6.40121692E-01  1.61277759E-01  1.87311370E+01  2.82539436E+00
  6.40121692E-01  1.61277759E-01
Contraction coefficients                   R   N=          82
  1.83473713E-03  1.40373228E-02  6.88426223E-02  2.32184443E-01  4.67941348E-01
  3.62311985E-01 -1.19332420E-01 -1.60854152E-01  1.14345644E+00  1.00000000E+00
  3.34946043E-02  2.34726953E-01  8.13757326E-01  1.00000000E+00  3.34946043E-02
  2.34726953E-01  8.13757326E-01  1.00000000E+00  1.83473713E-03  1.40373228E-02
  6.88426223E-02  2.32184443E-01  4.67941348E-01  3.62311985E-01 -1.19332420E-01
 -1.60854152E-01  1.14345644E+00  1.00000000E+00  3.34946043E-02  2.34726953E-01
  8.13757326E-01  1.00000000E+00  1.83473713E-03  1.40373228E-02  6.88426223E-02
  2.32184443E-01  4.67941348E-01  3.62311985E-01 -1.19332420E-01 -1.60854152E-01
  1.14345644E+00  1.00000000E+00  3.34946043E-02  2.34726953E-01  8.13757326E-01
  1.00000000E+00  3.34946043E-02  2.34726953E-01  8.13757326E-01  1.00000000E+00
  1.83473713E-03  1.40373228E-02  6.88426223E-02  2.32184443E-01  4.67941348E-01
  3.62311985E-01 -1.19332420E-01 -1.60854152E-01  1.14345644E+00  1.00000000E+00
  3.34946043E-02  2.34726953E-01  8.13757326E-01  1.00000000E+00  1.83473713E-03
  1.40373228E-02  6.88426223E-02  2.32184443E-01  4.67941348E-01  3.62311985E-01
 -1.19332420E-01 -1.60854152E-01  1.14345644E+00  1.00000000E+00  3.34946043E-02
  2.34726953E-01  8.13757326E-01  1.00000000E+00  3.34946043E-02  2.34726953E-01
  8.13757326E-01  1.00000000E+00
P(S=P) Contraction coefficients            R   N=          82
  0.00000000E+00  0.00000000E+00  0.00000000E+00  0.00000000E+00  0.00000000E+00
  0.00000000E+00  6.89990666E-02  3.16423961E-01  7.44308291E-01  1.00000000E+00
  0.00000000E+00  0.00000000E+00  0.00000000E+00  0.00000000E+00  0.00000000E+00
  0.00000000E+00  0.00000000E+00  0.00000000E+00  0.00000000E+00  0.00000000E+00
  0.00000000E+00  0.00000000E+00  0.00000000E+00  0.00000000E+00  6.89990666E-02
  3.16423961E-01  7.44308291E-01  1.00000000E+00  0.00000000E+00  0.00000000E+00
  0.00000000E+00  0.00000000E+00  0.00000000E+00  0.00000000E+00  0.00000000E+00
  0.00000000E+00  0.00000000E+00  0.00000000E+00  6.89990666E-02  3.16423961E-01
  7.44308291E-01  1.00000000E+00  0.00000000E+00  0.00000000E+00  0.00000000E+00
  0.00000000E+00  0.00000000E+00  0.00000000E+00  0.00000000E+00  0.00000000E+00
  0.00000000E+00  0.00000000E+00  0.00000000E+00  0.00000000E+00  0.00000000E+00
  0.00000000E+00  6.89990666E-02  3.16423961E-01  7.44308291E-01  1.00000000E+00
  0.00000000E+00  0.00000000E+00  0.00000000E+00  0.00000000E+00  0.00000000E+00
  0.00000000E+00  0.00000000E+00  0.00000000E+00  0.00000000E+00  0.00000000E+00
  6.89990666E-02  3.16423961E-01  7.44308291E-01  1.00000000E+00  0.00000000E+00
  0.00000000E+00  0.00000000E+00  0.00000000E+00  0.00000000E+00  0.00000000E+00
  0.00000000E+00  0.00000000E+00
Coordinates of each shell                  R   N=          93
  0.00000000E+00  0.00000000E+00  0.00000000E+00  0.00000000E+00  0.00000000E+00
  0.00000000E+00  0.00000000E+00  0.00000000E+00  0.00000000E+00  0.00000000E+00
  0.00000000E+00  2.06942179E+00  0.00000000E+00  0.00000000E+00  2.06942179E+00
  1.84080346E+00  0.00000000E+00 -9.37054449E-01  1.84080346E+00  0.00000000E+00
 -9.37054449E-01 -6.45799902E+00 -3.10524143E-02 -3.95489728E+00 -6.45799902E+00
 -3.10524143E-02 -3.95489728E+00 -6.45799902E+00 -3.10524143E-02 -3.95489728E+00
 -6.38056447E+00 -1.93327864E-02 -6.02710165E+00 -6.38056447E+00 -1.93327864E-02
 -6.02710165E+00 -1.43158497E+01  8.19339894E-03 -5.58932138E-01 -1.43158497E+01
  8.19339894E-03 -5.58932138E-01 -1.43158497E+01  8.19339894E-03 -5.58932138E-01
 -1.41555598E+01 -9.73387155E-02  1.52053479E+00 -1.41555598E+01 -9.73387155E-02
  1.52053479E+00 -1.53602216E+01 -1.68896039E+00 -1.18359094E+00 -1.53602216E+01
 -1.68896039E+00 -1.18359094E+00 -1.87757956E+01  6.97665775E+00 -2.75569698E+00
 -1.87757956E+01  6.97665775E+00 -2.75569698E+00 -1.87757956E+01  6.97665775E+00
 -2.75569698E+00 -1.79606866E+01  8.78532931E+00 -2.15193929E+00 -1.79606866E+01
  8.78532931E+00 -2.15193929E+00 -2.52307783E+01  6.95232991E+00 -6.71547286E+00
 -2.52307783E+01  6.95232991E+00 -6.71547286E+00 -2.52307783E+01  6.95232991E+00
 -6.71547286E+00 -2.60966783E+01  5.18675138E+00 -7.36003843E+00 -2.60966783E+01
  5.18675138E+00 -7.36003843E+00 -2.62117405E+01  8.70625230E+00 -7.19300975E+00
 -2.62117405E+01  8.70625230E+00 -7.19300975E+00
Num ILSW                                   I              100
ILSW                                       I   N=         100
           0           1           0           0           2           1
           0           0           0           0           0          -1
           5           0           0           1           0           0
           0           0           0           0           0           0
           1           1           0           0           0           0
           0           0      100000           0          -1           0
           0           0           0           0           0           0
           0           0           0           1           0           0
           0 -2000000000           1           0           0           0
           0           0           4          52           0           0
           0           0           0           0           0           0
           0           0           0          13           0           1
           0           0           0           0           0           0
           0           0           0           0           0           0
           0           0           0           0           0           0
           0           0           0           0           0           0
           0           0           0           0
Num RLSW                                   I               52
RLSW                                       R   N=          52
  1.00000000E+00  1.00000000E+00  1.00000000E+00  1.00000000E+00  1.00000000E+00
  0.00000000E+00  0.00000000E+00  1.00000000E+00  0.00000000E+00  0.00000000E+00
  0.00000000E+00  0.00000000E+00  1.00000000E+00  0.00000000E+00  0.00000000E+00
  0.00000000E+00  0.00000000E+00  1.00000000E+00  0.00000000E+00  0.00000000E+00
  0.00000000E+00  0.00000000E+00  1.00000000E+00  0.00000000E+00  0.00000000E+00
  0.00000000E+00  0.00000000E+00  1.00000000E+00  0.00000000E+00  0.00000000E+00
  0.00000000E+00  0.00000000E+00  1.00000000E+00  0.00000000E+00  0.00000000E+00
  0.00000000E+00  0.00000000E+00  0.00000000E+00  1.00000000E+00  1.00000000E+00
  0.00000000E+00  1.00000000E+00  0.00000000E+00  0.00000000E+00  0.00000000E+00
  0.00000000E+00  0.00000000E+00  0.00000000E+00  0.00000000E+00  0.00000000E+00
  0.00000000E+00  0.00000000E+00
MxBond                                     I                2
NBond                                      I   N=          13
           2           1           1           1           1           2
           1           1           1           1           2           1
           1
IBond                                      I   N=          26
           2           3           1           0           1           0
           5           0           4           0           7           8
           6           0           6           0          10           0
           9           0          12          13          11           0
          11           0
RBond                                      R   N=          26
  1.00000000E+00  1.00000000E+00  1.00000000E+00  0.00000000E+00  1.00000000E+00
  0.00000000E+00  1.00000000E+00  0.00000000E+00  1.00000000E+00  0.00000000E+00
  1.00000000E+00  1.00000000E+00  1.00000000E+00  0.00000000E+00  1.00000000E+00
  0.00000000E+00  1.00000000E+00  0.00000000E+00  1.00000000E+00  0.00000000E+00
  1.00000000E+00  1.00000000E+00  1.00000000E+00  0.00000000E+00  1.00000000E+00
  0.00000000E+00
Virial Ratio                               R      1.998961713626793E+00
SCF Energy                                 R     -1.931430607160133E+02
Total Energy                               R     -1.931430607160133E+02
S**2                                       R      4.095369959104216E+00
S**2 after annihilation                    R      1.381573962764579E+01
RMS Density                                R      7.659199425914736E-09
Job Status                                 I                1
Nuclear derivative order                   I                0
External E-field                           R   N=          35
  0.00000000E+00  0.00000000E+00  0.00000000E+00  0.00000000E+00  0.00000000E+00
  0.00000000E+00  0.00000000E+00  0.00000000E+00  0.00000000E+00  0.00000000E+00
  0.00000000E+00  0.00000000E+00  0.00000000E+00  0.00000000E+00  0.00000000E+00
  0.00000000E+00  0.00000000E+00  0.00000000E+00  0.00000000E+00  0.00000000E+00
  0.00000000E+00  0.00000000E+00  0.00000000E+00  0.00000000E+00  0.00000000E+00
  0.00000000E+00  0.00000000E+00  0.00000000E+00  0.00000000E+00  0.00000000E+00
  0.00000000E+00  0.00000000E+00  0.00000000E+00  0.00000000E+00  0.00000000E+00
IOpCl                                      I                0
IROHF                                      I                0
Alpha Orbital Energies                     R   N=          61
 -1.12976975E+01 -1.12741839E+01 -1.12647938E+01 -1.12593312E+01 -1.12592527E+01
 -8.72776844E-01 -8.69672742E-01 -8.69667032E-01 -8.67482628E-01 -7.75174017E-01
 -5.72858973E-01 -5.72836792E-01 -5.51374021E-01 -4.61450824E-01 -4.17707296E-01
 -4.09143340E-01 -4.01074735E-01 -3.98836250E-01 -3.94604446E-01  8.48025704E-02
  1.10648658E-01  1.17420871E-01  1.22812120E-01  1.25158495E-01  1.55398751E-01
  2.69501653E-01  2.69613387E-01  2.72637055E-01  2.89603311E-01  3.04015584E-01
  3.26952223E-01  3.32711212E-01  3.32849199E-01  7.14349638E-01  7.27375159E-01
  7.31635784E-01  7.46756460E-01  7.48967627E-01  7.57270134E-01  7.65533543E-01
  7.78732831E-01  8.06061031E-01  8.18792682E-01  8.36496897E-01  8.44102013E-01
  8.67954594E-01  8.74234688E-01  8.80985620E-01  9.02090442E-01  9.14174793E-01
  9.58774938E-01  9.64959303E-01  9.92947120E-01  1.17611663E+00  1.18665237E+00
  1.18857242E+00  1.19525769E+00  1.19526653E+00  1.19588339E+00  1.21755146E+00
  1.21763182E+00
Alpha MO coefficients                      R   N=        3721
  9.96385639E-01  2.24257880E-02  2.58332642E-03  1.01982872E-05  1.56538076E-03
 -1.10798125E-02 -2.60390805E-03 -4.93473014E-06 -1.58213841E-03 -3.90218934E-04
  3.42615400E-03 -3.96952094E-04  3.44861523E-03  3.15299417E-04  4.79389243E-06
 -1.02590363E-05 -2.52508962E-08 -8.85756978E-06 -1.03024614E-05  1.71099950E-05
 -5.14101922E-08  2.00059429E-05  1.26650014E-06  1.48374167E-05  1.41658509E-08
 -3.31476579E-08 -1.68352920E-07 -4.22751352E-08  8.61583450E-08  3.70388487E-09
  1.90834833E-07 -1.37438932E-08 -2.75368157E-07  2.42310752E-08  1.27494598E-07
  6.63993237E-08  2.61464285E-09  1.58799427E-06  2.35105428E-08 -5.99902238E-08
 -1.17309765E-07  3.38430355E-09  4.35960371E-08 -2.35137413E-08 -4.16099470E-08
 -5.96945322E-09 -8.65981285E-08 -1.34238300E-07  2.83222152E-06  3.14860747E-07
 -1.90938150E-07  3.01475451E-07 -7.37610938E-08 -7.73835805E-08 -2.88500835E-08
  7.88998396E-08 -1.05758601E-09 -4.38045324E-08 -1.24112236E-09  2.81552681E-07
  3.24636181E-07 -1.60590540E-06  2.68549179E-07 -1.34685292E-08 -1.43150403E-07
 -1.16020217E-07 -2.34298572E-07 -4.13927260E-08  1.30834301E-07  2.22704773E-07
  7.44138588E-08 -2.22544424E-07 -1.03886041E-08  1.25405109E-07  3.32225372E-05
  6.62248960E-07 -1.15102275E-07  9.68751179E-08 -2.39535203E-07 -5.85829861E-07
 -2.59726403E-07 -6.01606576E-08  6.02991807E-07  7.30518678E-08  5.80331712E-07
 -1.41048481E-05 -5.74433900E-06  4.76889745E-06 -1.33962207E-05  1.74641091E-06
 -1.39324482E-06 -4.74927208E-06  3.09065878E-05 -2.74027400E-06  4.99637250E-08
  1.87617020E-06  1.46896173E-06  1.30608503E-05  9.96484702E-01  2.10849992E-02
  1.05461334E-03  2.48587837E-03  7.90988640E-04 -8.64456487E-03 -1.15707877E-03
 -2.63514292E-03 -8.47736159E-04 -3.90452345E-04  4.08880831E-03 -3.02643816E-05
 -1.76064807E-05 -3.78182178E-05 -1.60343683E-05 -2.37627060E-05 -2.35653842E-05
  8.70460705E-05  6.55798114E-05  5.69083443E-05  5.45195796E-06  7.71049023E-05
  1.44467012E-06 -3.51787820E-06 -3.44012008E-04  5.69688388E-05 -9.13000523E-05
 -3.32407975E-07 -2.99351799E-05  1.03206085E-04 -7.66084916E-05  4.31655683E-07
 -1.50260891E-04 -9.62117411E-06  3.76993057E-05 -2.15921244E-05 -7.71280088E-05
  9.98859795E-01  1.61407527E-02  2.96915648E-04  6.49067320E-05 -5.01102800E-03
 -1.60248195E-02  1.15674170E-05  3.15277813E-05  1.48324006E-03 -4.06535239E-04
  5.64162270E-03 -2.08133411E-05  2.52486666E-05  1.46862091E-07  2.03673267E-05
 -9.53272189E-06  1.65756469E-05 -1.71975697E-05  1.93155231E-05 -2.64290175E-05
 -9.76985833E-07  2.97733306E-06 -6.26664462E-07 -1.30418587E-05 -3.31479491E-05
 -9.45958464E-07  4.24497230E-07  8.45487540E-07  1.57310203E-07 -2.69573884E-07
  6.77559919E-07 -3.06743610E-07  3.02205340E-07  6.98861444E-07  7.49433741E-07
  3.97392702E-06 -3.29135273E-07 -4.20238014E-07  5.28627601E-08 -1.22617099E-07
 -8.76681335E-07 -2.30841046E-07 -1.80387561E-07 -1.59261394E-07 -3.53694270E-08
  1.20172124E-07 -1.00463961E-07  2.84697563E-07 -3.26407579E-08 -1.65370108E-07
  1.18825858E-07 -1.48128417E-08  3.13346192E-07 -1.69408477E-09 -1.83007931E-07
  1.71705661E-08 -1.17588206E-06  1.37995207E-08  8.36920009E-07 -4.46393132E-09
 -3.73258108E-07  1.29016790E-05 -5.50438478E-06  1.06355633E-05  2.20252082E-06
 -7.58640941E-06 -1.71423475E-06 -2.20290735E-05 -3.98024660E-06  2.09591830E-05
  1.16017245E-06  1.46341394E-05  9.96468166E-01  2.23541660E-02 -9.14487841E-04
 -1.95002056E-03  1.97879413E-03 -1.14973183E-02  1.33498596E-03  2.70696625E-03
 -2.11068072E-03 -2.93566907E-04  3.75212735E-03 -6.11607340E-04  3.40995882E-03
  1.45006949E-05 -6.02953132E-06 -3.75793995E-06  1.16882322E-05 -4.24981725E-06
 -1.16535786E-06  6.03445373E-06 -2.90402480E-05  6.64700845E-06  6.74356574E-07
  1.35230401E-05  1.98337116E-05  7.26369795E-07 -5.97653870E-07  3.67290026E-07
 -3.09697138E-07 -1.61133328E-07  4.64322703E-07  9.59650695E-07  3.64545549E-07
 -6.37500685E-08  6.07856768E-07  5.77708135E-07  3.05548554E-07 -2.90686122E-06
  1.78815823E-07 -5.48651289E-09 -8.05803733E-08 -5.59424567E-08 -4.67450428E-07
 -8.55875978E-08 -1.53855931E-07  4.00430395E-08  1.11309332E-07  3.42462682E-08
  4.67717744E-08  1.95022925E-07 -3.99310629E-06  5.04923845E-07  6.99000176E-08
  5.89228367E-08  2.43510183E-07  5.72632170E-07  1.07542311E-07  2.17116031E-08
  4.00419110E-07 -2.21776910E-08  6.75598213E-08 -1.94890051E-05 -2.13971936E-06
 -9.55319398E-07 -1.72417212E-06  1.25413935E-06 -1.41051044E-06 -2.17705771E-06
  7.41817756E-07  5.81708416E-07  4.25865660E-07  8.15924338E-07  4.95068494E-07
  7.62660422E-07  4.17125726E-06  1.01664256E-04  1.12697436E-05 -5.20320931E-05
  3.08764949E-06  4.68956937E-05  9.47348564E-05 -4.75125852E-05  5.19443970E-05
 -5.04127539E-06 -5.26019765E-05  9.97973177E-01  1.92020654E-02 -4.54603756E-03
 -5.62647341E-04 -2.81685073E-03 -1.58758306E-02  5.47172473E-04 -2.05710541E-04
  3.10617532E-04 -4.25462385E-04  4.11601088E-03 -1.00640266E-03  3.65270630E-03
 -1.91721527E-01  3.94539699E-01  1.21102219E-01  2.89676984E-05  7.26300977E-02
  3.66208593E-01  4.44242862E-02 -1.43581902E-04  2.55676034E-02  1.88717498E-01
  6.89385369E-02  1.90547375E-01  6.94634182E-02 -1.59045254E-04 -5.84303834E-04
 -2.43887941E-04 -1.01204617E-06 -3.52944251E-04  1.13426966E-03  1.91309514E-03
 -8.72903168E-06  1.27953445E-03  1.08282773E-04  7.17730291E-04 -1.08581645E-07
  8.78566367E-07 -2.86207701E-06  9.24931433E-07  4.62129701E-07 -2.14165170E-06
  2.61837407E-06  2.19326044E-06 -5.79620110E-06 -2.04904433E-07  3.24822018E-06
  4.03526067E-07  1.47117388E-07 -1.23106256E-07  3.11123594E-07  4.45044478E-07
  4.10165724E-07  1.99110391E-07 -2.88972914E-08 -1.00388611E-08 -5.03206276E-07
 -3.71331865E-07  4.18843849E-07  4.12836760E-07  1.10032526E-07 -2.97310969E-07
 -1.44561244E-07  8.44264852E-07 -4.71064122E-07 -6.63413837E-07 -3.16715426E-07
  8.24171596E-07 -6.48296707E-07 -1.90326066E-07  8.57478338E-07  3.72441289E-07
 -2.14102475E-08 -4.89873066E-06  1.39852307E-05 -1.19733638E-05  6.27279043E-07
 -6.00556075E-06  9.15828706E-06 -1.54770025E-05 -1.00626010E-07 -2.04412994E-05
 -1.44597062E-06  7.62821192E-06 -7.43419672E-07 -7.15497987E-06 -5.47767613E-05
 -4.32050951E-04  1.11163471E-04 -2.14967603E-05 -2.50440399E-04  4.66221651E-04
 -1.48552417E-03  2.00189074E-04  8.07764105E-04  7.78278299E-05  6.36193763E-04
 -1.77156391E-01  3.63006784E-01  5.72082194E-02  6.09616664E-02  2.10351952E-01
  3.78601472E-01  2.84899880E-02  4.10375394E-02  5.17820287E-02  2.76609250E-01
  1.64241467E-01  1.39726138E-02 -8.23423951E-02 -4.91160147E-04  3.39958715E-04
 -1.40097734E-04 -1.12342574E-04 -9.05430463E-05  2.11356874E-03  1.02163257E-03
 -1.33051976E-03  4.74216956E-04  5.64312743E-05 -2.19010454E-05  3.78657513E-06
 -6.85159885E-06  6.24334793E-06  1.11675304E-05  4.22902971E-06 -1.79627880E-05
  3.99849716E-05  5.05968490E-06  2.30769746E-05 -1.39299026E-05  5.58826862E-06
  2.78867968E-07  1.41657429E-05  7.30316329E-08  4.95305770E-07  5.10805230E-07
 -5.20185052E-07  3.13426340E-07 -1.95432989E-06  2.95544658E-07 -1.04317686E-06
 -4.21160620E-07  2.98034205E-07  1.77811425E-06  1.39129952E-07 -8.56495126E-08
 -1.01172820E-08  8.26250479E-07 -7.40354949E-07  6.33039904E-07  3.86073046E-06
  1.41888786E-06  3.13497359E-06  6.30284784E-07  1.19684668E-06 -2.74026940E-06
 -3.43506188E-06  2.33863828E-05 -9.52711169E-05 -3.03856820E-05 -4.98147209E-05
  6.45409743E-05 -5.13217578E-05 -1.16746269E-04  7.82586684E-05  9.74467769E-06
  1.37972192E-05  5.70479247E-05 -5.93988956E-06  3.00620707E-05 -3.28161563E-03
  9.08322727E-03  1.79738302E-04 -3.09554365E-03 -7.14973586E-05  7.53030639E-03
  5.68489758E-03 -3.28253460E-03  3.14722161E-03  7.48598965E-04 -3.19727583E-03
 -8.63629073E-02  1.81205933E-01 -2.35912380E-01 -2.92544210E-01 -1.63505285E-01
  6.85466308E-02 -1.65857514E-01 -9.35950542E-02 -1.07580554E-01  3.35947231E-01
  2.46223471E-01 -1.05762778E-02 -6.03411555E-02  3.97261446E-07 -2.38761554E-07
  7.44551946E-07  3.81651544E-07  1.58695832E-06 -3.41210449E-06 -7.05982331E-07
  4.52152264E-07 -8.58803674E-07  9.46984491E-07  3.45754449E-06 -4.45436149E-07
 -3.10526878E-07  1.05709006E-06  7.43448048E-07  3.31619777E-06 -2.05084386E-06
  2.66094243E-05  1.11407398E-05  1.19933544E-05  3.54282193E-07  4.33683822E-06
 -1.95693275E-05 -2.75328500E-05  3.45535488E-04 -2.01039860E-03 -2.30998266E-05
 -1.35287068E-04 -1.30918807E-03  7.29569603E-04 -2.44107912E-03  2.96436777E-03
 -1.79239535E-03 -1.47065192E-03 -2.03776824E-04 -1.07283315E-04  6.09315609E-04
 -2.20813655E-01  4.45012308E-01 -5.50674205E-02 -1.27397382E-01 -3.67764862E-02
  6.40053184E-01 -3.99276940E-02 -9.90730090E-02 -2.49350439E-02  4.60463536E-02
 -9.60415396E-02  4.90797395E-04 -2.88191024E-03  2.06452498E-03  3.33602056E-03
  1.48795111E-03 -7.52398197E-05  7.14071191E-03 -8.10697132E-04  4.34218322E-03
 -3.53622412E-03 -1.20476190E-03  3.53057361E-04  4.30572242E-03  9.00858279E-04
 -2.83715194E-03  3.91142554E-03  1.02205948E-05  3.18679775E-03 -4.61417053E-03
 -1.99515150E-03 -4.36299122E-05  1.27370109E-03  1.12258404E-03  2.30810491E-03
  4.12180616E-04  3.70023863E-03  6.74457535E-02 -1.66285169E-01 -1.96613157E-02
 -3.88120658E-03  4.23858939E-01  7.20091803E-02 -1.18731470E-02 -2.42848429E-03
  1.80250013E-01 -3.52706016E-01 -3.01026676E-01  2.80388838E-04 -1.35950152E-03
 -3.61296335E-04 -7.62116475E-04  7.78145240E-04 -4.23631809E-04  2.50732890E-03
 -6.76336548E-04  8.63986509E-05  1.17566259E-04  4.33788592E-04 -5.46441842E-05
  7.64505061E-04  4.97271964E-06  2.15371219E-06 -2.85732624E-06  3.87973732E-06
  1.25602350E-06 -2.39807793E-05 -2.20139282E-05  3.29670791E-05 -9.58564827E-06
  2.39645063E-07 -8.21438418E-06  4.64089700E-07  2.65322641E-07  5.76731495E-06
 -3.56594507E-07  2.57358892E-06 -3.86451904E-06  6.41569317E-06  1.89781141E-06
  2.85402136E-06 -1.14442553E-06  5.31128900E-06 -3.88242180E-06 -7.97686958E-07
 -6.68813321E-04  1.44162852E-03 -2.31923653E-01 -6.64219383E-06  3.80768186E-01
  3.59408493E-03 -6.93297630E-02 -1.70161517E-05  1.17941907E-01  2.65717436E-01
  2.34740132E-01 -2.64496543E-01 -2.37527873E-01 -1.84466287E-04  6.66779292E-04
  8.13866731E-05  1.08808702E-05 -1.24114067E-03 -8.26601370E-04 -3.52538133E-04
  6.81501768E-06  4.32148301E-04  1.07460483E-03  1.53631015E-03 -9.05251025E-07
  3.06749227E-06  3.10493950E-06  3.73255446E-06 -6.58779141E-06  5.31941271E-06
 -7.21964006E-06  3.86083357E-06  7.92553890E-07 -3.97710631E-06 -6.67386732E-06
 -4.51837939E-07 -4.44152030E-07  5.80604389E-07 -1.55611334E-06 -3.90756568E-07
  1.04407117E-06 -6.69418487E-07 -6.82577623E-07  4.68305711E-07  1.76188923E-06
  3.32726609E-07  1.10624605E-07 -9.14334498E-07 -5.84658474E-08  4.15976493E-07
 -1.64176582E-06  7.03391819E-07  8.04116320E-08 -6.61965944E-08 -8.90274273E-07
 -1.74322403E-06  3.99693041E-07 -7.78135112E-07 -2.36273341E-06  1.12077754E-06
  1.93386545E-06  2.49167031E-05 -2.62474078E-05  1.74578651E-04  1.66755655E-06
  9.42848196E-05 -1.69154926E-04  8.79336783E-05  3.63835709E-06  5.11037597E-05