 Entering Gaussian System, Link 0=g16
 Input=C5H8_opt.gjf
 Output=C5H8_opt.log
 Initial command:
 /opt/g16/l1.exe "/scratch/qingchun/gaussian/Gau-378428.inp" -scrdir="/scratch/qingchun/gaussian/"
 Entering Link 1 = /opt/g16/l1.exe PID=    378429.
  
 Copyright (c) 1988,1990,1992,1993,1995,1998,2003,2009,2016,
            Gaussian, Inc.  All Rights Reserved.
  
 This is part of the Gaussian(R) 16 program.  It is based on
 the Gaussian(R) 09 system (copyright 2009, Gaussian, Inc.),
 the Gaussian(R) 03 system (copyright 2003, Gaussian, Inc.),
 the Gaussian(R) 98 system (copyright 1998, Gaussian, Inc.),
 the Gaussian(R) 94 system (copyright 1995, Gaussian, Inc.),
 the Gaussian 92(TM) system (copyright 1992, Gaussian, Inc.),
 the Gaussian 90(TM) system (copyright 1990, Gaussian, Inc.),
 the Gaussian 88(TM) system (copyright 1988, Gaussian, Inc.),
 the Gaussian 86(TM) system (copyright 1986, Carnegie Mellon
 University), and the Gaussian 82(TM) system (copyright 1983,
 Carnegie Mellon University). Gaussian is a federally registered
 trademark of Gaussian, Inc.
  
 This software contains proprietary and confidential information,
 including trade secrets, belonging to Gaussian, Inc.
  
 This software is provided under written license and may be
 used, copied, transmitted, or stored only in accord with that
 written license.
  
 The following legend is applicable only to US Government
 contracts under FAR:
  
                    RESTRICTED RIGHTS LEGEND
  
 Use, reproduction and disclosure by the US Government is
 subject to restrictions as set forth in subparagraphs (a)
 and (c) of the Commercial Computer Software - Restricted
 Rights clause in FAR 52.227-19.
  
 Gaussian, Inc.
 340 Quinnipiac St., Bldg. 40, Wallingford CT 06492
  
  
 ---------------------------------------------------------------
 Warning -- This program may not be used in any manner that
 competes with the business of Gaussian, Inc. or will provide
 assistance to any competitor of Gaussian, Inc.  The licensee
 of this program is prohibited from giving any competitor of
 Gaussian, Inc. access to this program.  By using this program,
 the user acknowledges that Gaussian, Inc. is engaged in the
 business of creating and licensing software in the field of
 computational chemistry and represents and warrants to the
 licensee that it is not a competitor of Gaussian, Inc. and that
 it will not use this program in any manner prohibited above.
 ---------------------------------------------------------------
  

 Cite this work as:
 Gaussian 16, Revision A.03,
 M. J. Frisch, G. W. Trucks, H. B. Schlegel, G. E. Scuseria, 
 M. A. Robb, J. R. Cheeseman, G. Scalmani, V. Barone, 
 G. A. Petersson, H. Nakatsuji, X. Li, M. Caricato, A. V. Marenich, 
 J. Bloino, B. G. Janesko, R. Gomperts, B. Mennucci, H. P. Hratchian, 
 J. V. Ortiz, A. F. Izmaylov, J. L. Sonnenberg, D. Williams-Young, 
 F. Ding, F. Lipparini, F. Egidi, J. Goings, B. Peng, A. Petrone, 
 T. Henderson, D. Ranasinghe, V. G. Zakrzewski, J. Gao, N. Rega, 
 G. Zheng, W. Liang, M. Hada, M. Ehara, K. Toyota, R. Fukuda, 
 J. Hasegawa, M. Ishida, T. Nakajima, Y. Honda, O. Kitao, H. Nakai, 
 T. Vreven, K. Throssell, J. A. Montgomery, Jr., J. E. Peralta, 
 F. Ogliaro, M. J. Bearpark, J. J. Heyd, E. N. Brothers, K. N. Kudin, 
 V. N. Staroverov, T. A. Keith, R. Kobayashi, J. Normand, 
 K. Raghavachari, A. P. Rendell, J. C. Burant, S. S. Iyengar, 
 J. Tomasi, M. Cossi, J. M. Millam, M. Klene, C. Adamo, R. Cammi, 
 J. W. Ochterski, R. L. Martin, K. Morokuma, O. Farkas, 
 J. B. Foresman, and D. J. Fox, Gaussian, Inc., Wallingford CT, 2016.
 
 ******************************************
 Gaussian 16:  ES64L-G16RevA.03 25-Dec-2016
                 5-Mar-2020 
 ******************************************
 %nprocshared=24
 Will use up to   24 processors via shared memory.
 %mem=180GB
 %chk=C5H8_opt.chk
 -------------------------------------------
 #p opt freq b3lyp/cc-pVDZ geom=connectivity
 -------------------------------------------
 1/18=20,19=15,26=3,38=1,57=2/1,3;
 2/9=110,12=2,17=6,18=5,40=1/2;
 3/5=16,11=2,25=1,30=1,71=1,74=-5/1,2,3;
 4//1;
 5/5=2,38=5/2;
 6/7=2,8=2,9=2,10=2,28=1/1;
 7//1,2,3,16;
 1/18=20,19=15,26=3/3(2);
 2/9=110/2;
 99//99;
 2/9=110/2;
 3/5=16,11=2,25=1,30=1,71=1,74=-5/1,2,3;
 4/5=5,16=3,69=1/1;
 5/5=2,38=5/2;
 7//1,2,3,16;
 1/18=20,19=15,26=3/3(-5);
 2/9=110/2;
 6/7=2,8=2,9=2,10=2,19=2,28=1/1;
 99/9=1/99;
 Leave Link    1 at Thu Mar  5 23:13:46 2020, MaxMem= 24159191040 cpu:               1.1 elap:               0.1
 (Enter /opt/g16/l101.exe)
 -----
 6-31G
 -----
 Symbolic Z-matrix:
 Charge =  0 Multiplicity = 1
 C                    -0.8989    0.2226   -0.01177 
 H                    -0.36573  -0.7051   -0.01177 
 H                    -1.9689    0.2226   -0.01177 
 C                    -0.22362   1.39758  -0.01177 
 H                    -0.75679   2.32528  -0.01177 
 C                     1.31638   1.39758  -0.01177 
 H                     1.67305   0.89148  -0.88444 
 H                     1.67305   0.89487   0.86286 
 C                     1.82971   2.8495   -0.01458 
 H                     1.13278   3.66141  -0.01654 
 C                     3.1611    3.10241  -0.01459 
 H                     3.86284   2.29467  -0.01658 
 H                     3.51177   4.11332  -0.01261 
 
 ITRead=  0  0  0  0  0  0  0  0  0  0  0  0  0
 MicOpt= -1 -1 -1 -1 -1 -1 -1 -1 -1 -1 -1 -1 -1
 NAtoms=     13 NQM=       13 NQMF=       0 NMMI=      0 NMMIF=      0
                NMic=       0 NMicF=      0.
                    Isotopes and Nuclear Properties:
 (Nuclear quadrupole moments (NQMom) in fm**2, nuclear magnetic moments (NMagM)
  in nuclear magnetons)

  Atom         1           2           3           4           5           6           7           8           9          10
 IAtWgt=          12           1           1          12           1          12           1           1          12           1
 AtmWgt=  12.0000000   1.0078250   1.0078250  12.0000000   1.0078250  12.0000000   1.0078250   1.0078250  12.0000000   1.0078250
 NucSpn=           0           1           1           0           1           0           1           1           0           1
 AtZEff=  -0.0000000  -0.0000000  -0.0000000  -0.0000000  -0.0000000  -0.0000000  -0.0000000  -0.0000000  -0.0000000  -0.0000000
 NQMom=    0.0000000   0.0000000   0.0000000   0.0000000   0.0000000   0.0000000   0.0000000   0.0000000   0.0000000   0.0000000
 NMagM=    0.0000000   2.7928460   2.7928460   0.0000000   2.7928460   0.0000000   2.7928460   2.7928460   0.0000000   2.7928460
 AtZNuc=   6.0000000   1.0000000   1.0000000   6.0000000   1.0000000   6.0000000   1.0000000   1.0000000   6.0000000   1.0000000

  Atom        11          12          13
 IAtWgt=          12           1           1
 AtmWgt=  12.0000000   1.0078250   1.0078250
 NucSpn=           0           1           1
 AtZEff=  -0.0000000  -0.0000000  -0.0000000
 NQMom=    0.0000000   0.0000000   0.0000000
 NMagM=    0.0000000   2.7928460   2.7928460
 AtZNuc=   6.0000000   1.0000000   1.0000000
 Leave Link  101 at Thu Mar  5 23:13:46 2020, MaxMem= 24159191040 cpu:               9.2 elap:               0.4
 (Enter /opt/g16/l103.exe)

 GradGradGradGradGradGradGradGradGradGradGradGradGradGradGradGradGradGrad
 Berny optimization.
 Initialization pass.
                           ----------------------------
                           !    Initial Parameters    !
                           ! (Angstroms and Degrees)  !
 --------------------------                            --------------------------
 ! Name  Definition              Value          Derivative Info.                !
 --------------------------------------------------------------------------------
 ! R1    R(1,2)                  1.07           estimate D2E/DX2                !
 ! R2    R(1,3)                  1.07           estimate D2E/DX2                !
 ! R3    R(1,4)                  1.3552         estimate D2E/DX2                !
 ! R4    R(4,5)                  1.07           estimate D2E/DX2                !
 ! R5    R(4,6)                  1.54           estimate D2E/DX2                !
 ! R6    R(6,7)                  1.07           estimate D2E/DX2                !
 ! R7    R(6,8)                  1.07           estimate D2E/DX2                !
 ! R8    R(6,9)                  1.54           estimate D2E/DX2                !
 ! R9    R(9,10)                 1.07           estimate D2E/DX2                !
 ! R10   R(9,11)                 1.3552         estimate D2E/DX2                !
 ! R11   R(11,12)                1.07           estimate D2E/DX2                !
 ! R12   R(11,13)                1.07           estimate D2E/DX2                !
 ! A1    A(2,1,3)              119.8865         estimate D2E/DX2                !
 ! A2    A(2,1,4)              120.2269         estimate D2E/DX2                !
 ! A3    A(3,1,4)              119.8865         estimate D2E/DX2                !
 ! A4    A(1,4,5)              120.2269         estimate D2E/DX2                !
 ! A5    A(1,4,6)              119.8865         estimate D2E/DX2                !
 ! A6    A(5,4,6)              119.8865         estimate D2E/DX2                !
 ! A7    A(4,6,7)              109.4712         estimate D2E/DX2                !
 ! A8    A(4,6,8)              109.4712         estimate D2E/DX2                !
 ! A9    A(4,6,9)              109.4712         estimate D2E/DX2                !
 ! A10   A(7,6,8)              109.4712         estimate D2E/DX2                !
 ! A11   A(7,6,9)              109.4713         estimate D2E/DX2                !
 ! A12   A(8,6,9)              109.4712         estimate D2E/DX2                !
 ! A13   A(6,9,10)             119.8865         estimate D2E/DX2                !
 ! A14   A(6,9,11)             120.2269         estimate D2E/DX2                !
 ! A15   A(10,9,11)            119.8865         estimate D2E/DX2                !
 ! A16   A(9,11,12)            120.2269         estimate D2E/DX2                !
 ! A17   A(9,11,13)            119.8865         estimate D2E/DX2                !
 ! A18   A(12,11,13)           119.8865         estimate D2E/DX2                !
 ! D1    D(2,1,4,5)            180.0            estimate D2E/DX2                !
 ! D2    D(2,1,4,6)              0.0            estimate D2E/DX2                !
 ! D3    D(3,1,4,5)              0.0            estimate D2E/DX2                !
 ! D4    D(3,1,4,6)            180.0            estimate D2E/DX2                !
 ! D5    D(1,4,6,7)             59.8889         estimate D2E/DX2                !
 ! D6    D(1,4,6,8)            -60.1111         estimate D2E/DX2                !
 ! D7    D(1,4,6,9)            179.8889         estimate D2E/DX2                !
 ! D8    D(5,4,6,7)           -120.1111         estimate D2E/DX2                !
 ! D9    D(5,4,6,8)            119.8889         estimate D2E/DX2                !
 ! D10   D(5,4,6,9)             -0.1111         estimate D2E/DX2                !
 ! D11   D(4,6,9,10)            -0.0235         estimate D2E/DX2                !
 ! D12   D(4,6,9,11)           179.9765         estimate D2E/DX2                !
 ! D13   D(7,6,9,10)           119.9765         estimate D2E/DX2                !
 ! D14   D(7,6,9,11)           -60.0235         estimate D2E/DX2                !
 ! D15   D(8,6,9,10)          -120.0235         estimate D2E/DX2                !
 ! D16   D(8,6,9,11)            59.9765         estimate D2E/DX2                !
 ! D17   D(6,9,11,12)            0.2438         estimate D2E/DX2                !
 ! D18   D(6,9,11,13)         -179.7562         estimate D2E/DX2                !
 ! D19   D(10,9,11,12)        -179.7562         estimate D2E/DX2                !
 ! D20   D(10,9,11,13)           0.2438         estimate D2E/DX2                !
 --------------------------------------------------------------------------------
 Trust Radius=3.00D-01 FncErr=1.00D-07 GrdErr=1.00D-06 EigMax=2.50D+02 EigMin=1.00D-04
 Number of steps in this run=     60 maximum allowed number of steps=    100.
 GradGradGradGradGradGradGradGradGradGradGradGradGradGradGradGradGradGrad

 Leave Link  103 at Thu Mar  5 23:13:46 2020, MaxMem= 24159191040 cpu:               0.8 elap:               0.1
 (Enter /opt/g16/l202.exe)
                          Input orientation:                          
 ---------------------------------------------------------------------
 Center     Atomic      Atomic             Coordinates (Angstroms)
 Number     Number       Type             X           Y           Z
 ---------------------------------------------------------------------
      1          6           0       -0.898896    0.222603   -0.011767
      2          1           0       -0.365732   -0.705102   -0.011767
      3          1           0       -1.968896    0.222603   -0.011767
      4          6           0       -0.223621    1.397580   -0.011767
      5          1           0       -0.756785    2.325285   -0.011767
      6          6           0        1.316379    1.397580   -0.011767
      7          1           0        1.673045    0.891484   -0.884439
      8          1           0        1.673046    0.894872    0.862861
      9          6           0        1.829712    2.849503   -0.014582
     10          1           0        1.132784    3.661407   -0.016537
     11          6           0        3.161103    3.102415   -0.014593
     12          1           0        3.862842    2.294666   -0.016579
     13          1           0        3.511769    4.113320   -0.012608
 ---------------------------------------------------------------------
                    Distance matrix (angstroms):
                    1          2          3          4          5
     1  C    0.000000
     2  H    1.070000   0.000000
     3  H    1.070000   1.852234   0.000000
     4  C    1.355200   2.107479   2.103938   0.000000
     5  H    2.107479   3.055514   2.427032   1.070000   0.000000
     6  C    2.507591   2.692725   3.489068   1.540000   2.271265
     7  H    2.797112   2.732628   3.804299   2.148263   2.953204
     8  H    2.798536   2.735234   3.805346   2.148263   2.952140
     9  C    3.787600   4.177942   4.618445   2.514809   2.639087
    10  H    3.994136   4.616490   4.630963   2.639086   2.314242
    11  C    4.977641   5.189967   5.883044   3.789832   3.994219
    12  H    5.193035   5.184541   6.188912   4.183774   4.619731
    13  H    5.881466   6.184837   6.721262   4.618267   4.627918
                    6          7          8          9         10
     6  C    0.000000
     7  H    1.070000   0.000000
     8  H    1.070000   1.747303   0.000000
     9  C    1.540000   2.148263   2.148263   0.000000
    10  H    2.271265   2.952560   2.952785   1.070000   0.000000
    11  C    2.511867   2.803420   2.803120   1.355200   2.103938
    12  H    2.699863   2.741771   2.743728   2.107479   3.053064
    13  H    3.492132   3.810672   3.808642   2.103938   2.421531
                   11         12         13
    11  C    0.000000
    12  H    1.070000   0.000000
    13  H    1.070000   1.852234   0.000000
 Stoichiometry    C5H8
 Framework group  C1[X(C5H8)]
 Deg. of freedom    33
 Full point group                 C1      NOp   1
 Largest Abelian subgroup         C1      NOp   1
 Largest concise Abelian subgroup C1      NOp   1
                         Standard orientation:                         
 ---------------------------------------------------------------------
 Center     Atomic      Atomic             Coordinates (Angstroms)
 Number     Number       Type             X           Y           Z
 ---------------------------------------------------------------------
      1          6           0       -2.488104   -0.140909   -0.000532
      2          1           0       -2.589804   -1.206065   -0.001131
      3          1           0       -3.360933    0.478017   -0.000773
      4          6           0       -1.257615    0.426950    0.000532
      5          1           0       -1.155915    1.492106    0.001131
      6          6           0       -0.001394   -0.463840    0.000880
      7          1           0       -0.002643   -1.082547   -0.872104
      8          1           0       -0.001788   -1.080661    0.875198
      9          6           0        1.257191    0.423606   -0.000694
     10          1           0        1.158323    1.489027   -0.002176
     11          6           0        2.489538   -0.140211   -0.000207
     12          1           0        2.594737   -1.205025   -0.002662
     13          1           0        3.360328    0.481573    0.002641
 ---------------------------------------------------------------------
 Rotational constants (GHZ):          26.3778158           2.2248328           2.0777320
 Leave Link  202 at Thu Mar  5 23:13:46 2020, MaxMem= 24159191040 cpu:               0.2 elap:               0.0
 (Enter /opt/g16/l301.exe)
 Standard basis: CC-pVDZ (5D, 7F)
 Ernie: Thresh=  0.10000D-02 Tol=  0.10000D-05 Strict=F.
 Ernie:  10 primitive shells out of 150 were deleted.
 There are   115 symmetry adapted cartesian basis functions of A   symmetry.
 There are   110 symmetry adapted basis functions of A   symmetry.
   110 basis functions,   221 primitive gaussians,   115 cartesian basis functions
    19 alpha electrons       19 beta electrons
       nuclear repulsion energy       153.6321948391 Hartrees.
 IExCor=  402 DFT=T Ex+Corr=B3LYP ExCW=0 ScaHFX=  0.200000
 ScaDFX=  0.800000  0.720000  1.000000  0.810000 ScalE2=  1.000000  1.000000
 IRadAn=      5 IRanWt=     -1 IRanGd=            0 ICorTp=0 IEmpDi=  4
 NAtoms=   13 NActive=   13 NUniq=   13 SFac= 1.00D+00 NAtFMM=   60 NAOKFM=F Big=F
 Integral buffers will be    131072 words long.
 Raffenetti 2 integral format.
 Two-electron integral symmetry is turned on.
 Leave Link  301 at Thu Mar  5 23:13:47 2020, MaxMem= 24159191040 cpu:               3.6 elap:               0.2
 (Enter /opt/g16/l302.exe)
 NPDir=0 NMtPBC=     1 NCelOv=     1 NCel=       1 NClECP=     1 NCelD=      1
         NCelK=      1 NCelE2=     1 NClLst=     1 CellRange=     0.0.
 One-electron integrals computed using PRISM.
 One-electron integral symmetry used in STVInt
 NBasis=   110 RedAO= T EigKep=  2.29D-03  NBF=   110
 NBsUse=   110 1.00D-06 EigRej= -1.00D+00 NBFU=   110
 Precomputing XC quadrature grid using
 IXCGrd= 4 IRadAn=           5 IRanWt=          -1 IRanGd=           0 AccXCQ= 0.00D+00.
 Generated NRdTot=       0 NPtTot=           0 NUsed=           0 NTot=          32
 NSgBfM=   115   115   115   115   115 MxSgAt=    13 MxSgA2=    13.
 Leave Link  302 at Thu Mar  5 23:13:47 2020, MaxMem= 24159191040 cpu:               4.4 elap:               0.2
 (Enter /opt/g16/l303.exe)
 DipDrv:  MaxL=1.
 Leave Link  303 at Thu Mar  5 23:13:47 2020, MaxMem= 24159191040 cpu:               0.6 elap:               0.0
 (Enter /opt/g16/l401.exe)
 ExpMin= 1.22D-01 ExpMax= 6.67D+03 ExpMxC= 2.28D+02 IAcc=3 IRadAn=         5 AccDes= 0.00D+00
 Harris functional with IExCor=  402 and IRadAn=       5 diagonalized for initial guess.
 HarFok:  IExCor=  402 AccDes= 0.00D+00 IRadAn=         5 IDoV= 1 UseB2=F ITyADJ=14
 ICtDFT=  3500011 ScaDFX=  1.000000  1.000000  1.000000  1.000000
 FoFCou: FMM=F IPFlag=           0 FMFlag=      100000 FMFlg1=           0
         NFxFlg=           0 DoJE=T BraDBF=F KetDBF=T FulRan=T
         wScrn=  0.000000 ICntrl=       500 IOpCl=  0 I1Cent=   200000004 NGrid=           0
         NMat0=    1 NMatS0=      1 NMatT0=    0 NMatD0=    1 NMtDS0=    0 NMtDT0=    0
 Petite list used in FoFCou.
 Harris En= -195.337128800374    
 JPrj=0 DoOrth=F DoCkMO=F.
 Leave Link  401 at Thu Mar  5 23:13:47 2020, MaxMem= 24159191040 cpu:               7.3 elap:               0.3
 (Enter /opt/g16/l502.exe)
 Integral symmetry usage will be decided dynamically.
 Closed shell SCF:
 Using DIIS extrapolation, IDIIS=  1040.
 NGot= 24159191040 LenX= 24159160401 LenY= 24159146735
 Requested convergence on RMS density matrix=1.00D-08 within 128 cycles.
 Requested convergence on MAX density matrix=1.00D-06.
 Requested convergence on             energy=1.00D-06.
 No special actions if energy rises.
 Fock matrices will be formed incrementally for  20 cycles.
 Integral accuracy reduced to 1.0D-05 until final iterations.

 Cycle   1  Pass 0  IDiag  1:
 FoFJK:  IHMeth= 1 ICntrl=       0 DoSepK=F KAlg= 0 I1Cent=           0 FoldK=F
 IRaf= 980000000 NMat=       1 IRICut=       1 DoRegI=T DoRafI=F ISym2E= 0 IDoP0=0 IntGTp=1.
 FoFCou: FMM=F IPFlag=           0 FMFlag=      100000 FMFlg1=           0
         NFxFlg=           0 DoJE=F BraDBF=F KetDBF=F FulRan=T
         wScrn=  0.000000 ICntrl=         0 IOpCl=  0 I1Cent=           0 NGrid=           0
         NMat0=    1 NMatS0=      1 NMatT0=    0 NMatD0=    1 NMtDS0=    0 NMtDT0=    0
 Symmetry not used in FoFCou.
 E= -195.124417453606    
 DIIS: error= 3.78D-02 at cycle   1 NSaved=   1.
 NSaved= 1 IEnMin= 1 EnMin= -195.124417453606     IErMin= 1 ErrMin= 3.78D-02
 ErrMax= 3.78D-02  0.00D+00 EMaxC= 1.00D-01 BMatC= 1.36D-01 BMatP= 1.36D-01
 IDIUse=3 WtCom= 6.22D-01 WtEn= 3.78D-01
 Coeff-Com:  0.100D+01
 Coeff-En:   0.100D+01
 Coeff:      0.100D+01
 Gap=     0.226 Goal=   None    Shift=    0.000
 GapD=    0.226 DampG=1.000 DampE=0.500 DampFc=0.5000 IDamp=-1.
 Damping current iteration by 5.00D-01
 RMSDP=6.69D-03 MaxDP=1.15D-01              OVMax= 1.72D-01

 Cycle   2  Pass 0  IDiag  1:
 RMSU=  3.26D-03    CP:  9.73D-01
 E= -195.206360835979     Delta-E=       -0.081943382373 Rises=F Damp=T
 DIIS: error= 4.46D-03 at cycle   2 NSaved=   2.
 NSaved= 2 IEnMin= 2 EnMin= -195.206360835979     IErMin= 2 ErrMin= 4.46D-03
 ErrMax= 4.46D-03  0.00D+00 EMaxC= 1.00D-01 BMatC= 3.46D-03 BMatP= 1.36D-01
 IDIUse=3 WtCom= 9.55D-01 WtEn= 4.46D-02
 Coeff-Com:  0.887D-02 0.991D+00
 Coeff-En:   0.000D+00 0.100D+01
 Coeff:      0.848D-02 0.992D+00
 Gap=     0.238 Goal=   None    Shift=    0.000
 RMSDP=1.25D-03 MaxDP=1.54D-02 DE=-8.19D-02 OVMax= 9.82D-02

 Cycle   3  Pass 0  IDiag  1:
 RMSU=  1.22D-03    CP:  9.65D-01  9.85D-01
 E= -195.290967090470     Delta-E=       -0.084606254491 Rises=F Damp=F
 DIIS: error= 4.76D-03 at cycle   3 NSaved=   3.
 NSaved= 3 IEnMin= 3 EnMin= -195.290967090470     IErMin= 2 ErrMin= 4.46D-03
 ErrMax= 4.76D-03  0.00D+00 EMaxC= 1.00D-01 BMatC= 1.31D-03 BMatP= 3.46D-03
 IDIUse=3 WtCom= 9.52D-01 WtEn= 4.76D-02
 Coeff-Com: -0.143D-01 0.344D+00 0.670D+00
 Coeff-En:   0.000D+00 0.000D+00 0.100D+01
 Coeff:     -0.136D-01 0.328D+00 0.686D+00
 Gap=     0.236 Goal=   None    Shift=    0.000
 RMSDP=5.37D-04 MaxDP=1.47D-02 DE=-8.46D-02 OVMax= 3.13D-02

 Cycle   4  Pass 0  IDiag  1:
 RMSU=  5.26D-04    CP:  9.65D-01  9.90D-01  9.11D-01
 E= -195.290876835648     Delta-E=        0.000090254823 Rises=F Damp=F
 DIIS: error= 4.70D-03 at cycle   4 NSaved=   4.
 NSaved= 4 IEnMin= 3 EnMin= -195.290967090470     IErMin= 2 ErrMin= 4.46D-03
 ErrMax= 4.70D-03  0.00D+00 EMaxC= 1.00D-01 BMatC= 1.40D-03 BMatP= 1.31D-03
 IDIUse=3 WtCom= 9.53D-01 WtEn= 4.70D-02
 Coeff-Com: -0.915D-02 0.732D-01 0.503D+00 0.433D+00
 Coeff-En:   0.000D+00 0.000D+00 0.512D+00 0.488D+00
 Coeff:     -0.872D-02 0.698D-01 0.503D+00 0.436D+00
 Gap=     0.236 Goal=   None    Shift=    0.000
 RMSDP=2.97D-04 MaxDP=7.81D-03 DE= 9.03D-05 OVMax= 1.62D-02

 Cycle   5  Pass 0  IDiag  1:
 RMSU=  7.57D-05    CP:  9.65D-01  9.95D-01  9.31D-01  4.57D-01
 E= -195.292384952658     Delta-E=       -0.001508117011 Rises=F Damp=F
 DIIS: error= 3.91D-04 at cycle   5 NSaved=   5.
 NSaved= 5 IEnMin= 5 EnMin= -195.292384952658     IErMin= 5 ErrMin= 3.91D-04
 ErrMax= 3.91D-04  0.00D+00 EMaxC= 1.00D-01 BMatC= 9.06D-06 BMatP= 1.31D-03
 IDIUse=3 WtCom= 9.96D-01 WtEn= 3.91D-03
 Coeff-Com: -0.204D-02 0.598D-02 0.142D+00 0.148D+00 0.705D+00
 Coeff-En:   0.000D+00 0.000D+00 0.000D+00 0.000D+00 0.100D+01
 Coeff:     -0.203D-02 0.596D-02 0.142D+00 0.148D+00 0.707D+00
 Gap=     0.237 Goal=   None    Shift=    0.000
 RMSDP=3.23D-05 MaxDP=6.35D-04 DE=-1.51D-03 OVMax= 8.87D-04

 Cycle   6  Pass 0  IDiag  1:
 RMSU=  2.11D-05    CP:  9.65D-01  9.94D-01  9.36D-01  4.72D-01  7.04D-01
 E= -195.292393261137     Delta-E=       -0.000008308478 Rises=F Damp=F
 DIIS: error= 1.25D-04 at cycle   6 NSaved=   6.
 NSaved= 6 IEnMin= 6 EnMin= -195.292393261137     IErMin= 6 ErrMin= 1.25D-04
 ErrMax= 1.25D-04  0.00D+00 EMaxC= 1.00D-01 BMatC= 1.37D-06 BMatP= 9.06D-06
 IDIUse=3 WtCom= 9.99D-01 WtEn= 1.25D-03
 Coeff-Com: -0.524D-03-0.768D-03 0.460D-01 0.518D-01 0.358D+00 0.546D+00
 Coeff-En:   0.000D+00 0.000D+00 0.000D+00 0.000D+00 0.916D-02 0.991D+00
 Coeff:     -0.523D-03-0.767D-03 0.460D-01 0.517D-01 0.357D+00 0.546D+00
 Gap=     0.237 Goal=   None    Shift=    0.000
 RMSDP=9.31D-06 MaxDP=3.04D-04 DE=-8.31D-06 OVMax= 3.20D-04

 Initial convergence to 1.0D-05 achieved.  Increase integral accuracy.
 Cycle   7  Pass 1  IDiag  1:
 E= -195.292384882590     Delta-E=        0.000008378547 Rises=F Damp=F
 DIIS: error= 1.57D-05 at cycle   1 NSaved=   1.
 NSaved= 1 IEnMin= 1 EnMin= -195.292384882590     IErMin= 1 ErrMin= 1.57D-05
 ErrMax= 1.57D-05  0.00D+00 EMaxC= 1.00D-01 BMatC= 2.47D-08 BMatP= 2.47D-08
 IDIUse=1 WtCom= 1.00D+00 WtEn= 0.00D+00
 Coeff-Com:  0.100D+01
 Coeff:      0.100D+01
 Gap=     0.237 Goal=   None    Shift=    0.000
 RMSDP=9.31D-06 MaxDP=3.04D-04 DE= 8.38D-06 OVMax= 5.79D-05

 Cycle   8  Pass 1  IDiag  1:
 RMSU=  4.65D-06    CP:  1.00D+00
 E= -195.292384889061     Delta-E=       -0.000000006471 Rises=F Damp=F
 DIIS: error= 1.39D-05 at cycle   2 NSaved=   2.
 NSaved= 2 IEnMin= 2 EnMin= -195.292384889061     IErMin= 2 ErrMin= 1.39D-05
 ErrMax= 1.39D-05  0.00D+00 EMaxC= 1.00D-01 BMatC= 1.52D-08 BMatP= 2.47D-08
 IDIUse=1 WtCom= 1.00D+00 WtEn= 0.00D+00
 Coeff-Com:  0.432D+00 0.568D+00
 Coeff:      0.432D+00 0.568D+00
 Gap=     0.237 Goal=   None    Shift=    0.000
 RMSDP=1.07D-06 MaxDP=3.64D-05 DE=-6.47D-09 OVMax= 3.54D-05

 Cycle   9  Pass 1  IDiag  1:
 RMSU=  9.91D-07    CP:  1.00D+00  9.15D-01
 E= -195.292384903055     Delta-E=       -0.000000013994 Rises=F Damp=F
 DIIS: error= 3.19D-06 at cycle   3 NSaved=   3.
 NSaved= 3 IEnMin= 3 EnMin= -195.292384903055     IErMin= 3 ErrMin= 3.19D-06
 ErrMax= 3.19D-06  0.00D+00 EMaxC= 1.00D-01 BMatC= 1.03D-09 BMatP= 1.52D-08
 IDIUse=1 WtCom= 1.00D+00 WtEn= 0.00D+00
 Coeff-Com:  0.783D-01 0.231D+00 0.690D+00
 Coeff:      0.783D-01 0.231D+00 0.690D+00
 Gap=     0.237 Goal=   None    Shift=    0.000
 RMSDP=3.08D-07 MaxDP=7.05D-06 DE=-1.40D-08 OVMax= 1.13D-05

 Cycle  10  Pass 1  IDiag  1:
 RMSU=  2.28D-07    CP:  1.00D+00  9.26D-01  7.97D-01
 E= -195.292384903967     Delta-E=       -0.000000000912 Rises=F Damp=F
 DIIS: error= 9.54D-07 at cycle   4 NSaved=   4.
 NSaved= 4 IEnMin= 4 EnMin= -195.292384903967     IErMin= 4 ErrMin= 9.54D-07
 ErrMax= 9.54D-07  0.00D+00 EMaxC= 1.00D-01 BMatC= 1.35D-10 BMatP= 1.03D-09
 IDIUse=1 WtCom= 1.00D+00 WtEn= 0.00D+00
 Coeff-Com:  0.121D-01 0.821D-01 0.355D+00 0.551D+00
 Coeff:      0.121D-01 0.821D-01 0.355D+00 0.551D+00
 Gap=     0.237 Goal=   None    Shift=    0.000
 RMSDP=1.18D-07 MaxDP=4.35D-06 DE=-9.12D-10 OVMax= 6.68D-06

 Cycle  11  Pass 1  IDiag  1:
 RMSU=  7.75D-08    CP:  1.00D+00  9.28D-01  8.27D-01  6.33D-01
 E= -195.292384904080     Delta-E=       -0.000000000114 Rises=F Damp=F
 DIIS: error= 6.30D-07 at cycle   5 NSaved=   5.
 NSaved= 5 IEnMin= 5 EnMin= -195.292384904080     IErMin= 5 ErrMin= 6.30D-07
 ErrMax= 6.30D-07  0.00D+00 EMaxC= 1.00D-01 BMatC= 3.11D-11 BMatP= 1.35D-10
 IDIUse=1 WtCom= 1.00D+00 WtEn= 0.00D+00
 Coeff-Com: -0.110D-02 0.263D-01 0.152D+00 0.363D+00 0.460D+00
 Coeff:     -0.110D-02 0.263D-01 0.152D+00 0.363D+00 0.460D+00
 Gap=     0.237 Goal=   None    Shift=    0.000
 RMSDP=4.56D-08 MaxDP=1.58D-06 DE=-1.14D-10 OVMax= 2.40D-06

 Cycle  12  Pass 1  IDiag  1:
 RMSU=  1.08D-08    CP:  1.00D+00  9.29D-01  8.24D-01  6.54D-01  4.38D-01
 E= -195.292384904112     Delta-E=       -0.000000000032 Rises=F Damp=F
 DIIS: error= 7.05D-08 at cycle   6 NSaved=   6.
 NSaved= 6 IEnMin= 6 EnMin= -195.292384904112     IErMin= 6 ErrMin= 7.05D-08
 ErrMax= 7.05D-08  0.00D+00 EMaxC= 1.00D-01 BMatC= 3.79D-13 BMatP= 3.11D-11
 IDIUse=1 WtCom= 1.00D+00 WtEn= 0.00D+00
 Coeff-Com: -0.819D-03 0.124D-01 0.731D-01 0.178D+00 0.245D+00 0.492D+00
 Coeff:     -0.819D-03 0.124D-01 0.731D-01 0.178D+00 0.245D+00 0.492D+00
 Gap=     0.237 Goal=   None    Shift=    0.000
 RMSDP=6.27D-09 MaxDP=2.11D-07 DE=-3.19D-11 OVMax= 3.35D-07

 SCF Done:  E(RB3LYP) =  -195.292384904     A.U. after   12 cycles
            NFock= 12  Conv=0.63D-08     -V/T= 2.0075
 KE= 1.938301373410D+02 PE=-7.588788293851D+02 EE= 2.161241123009D+02
 Leave Link  502 at Thu Mar  5 23:13:50 2020, MaxMem= 24159191040 cpu:              60.9 elap:               2.6
 (Enter /opt/g16/l601.exe)
 Copying SCF densities to generalized density rwf, IOpCl= 0 IROHF=0.

 **********************************************************************

            Population analysis using the SCF density.

 **********************************************************************

 Orbital symmetries:
       Occupied  (A) (A) (A) (A) (A) (A) (A) (A) (A) (A) (A) (A)
                 (A) (A) (A) (A) (A) (A) (A)
       Virtual   (A) (A) (A) (A) (A) (A) (A) (A) (A) (A) (A) (A)
                 (A) (A) (A) (A) (A) (A) (A) (A) (A) (A) (A) (A)
                 (A) (A) (A) (A) (A) (A) (A) (A) (A) (A) (A) (A)
                 (A) (A) (A) (A) (A) (A) (A) (A) (A) (A) (A) (A)
                 (A) (A) (A) (A) (A) (A) (A) (A) (A) (A) (A) (A)
                 (A) (A) (A) (A) (A) (A) (A) (A) (A) (A) (A) (A)
                 (A) (A) (A) (A) (A) (A) (A) (A) (A) (A) (A) (A)
                 (A) (A) (A) (A) (A) (A) (A)
 The electronic state is 1-A.
 Alpha  occ. eigenvalues --  -10.19148 -10.19137 -10.19019 -10.17682 -10.17674
 Alpha  occ. eigenvalues --   -0.80506  -0.75319  -0.67540  -0.56859  -0.55818
 Alpha  occ. eigenvalues --   -0.47213  -0.43799  -0.43580  -0.42682  -0.38305
 Alpha  occ. eigenvalues --   -0.35340  -0.33766  -0.26624  -0.24521
 Alpha virt. eigenvalues --   -0.00867   0.02008   0.07797   0.08601   0.08740
 Alpha virt. eigenvalues --    0.12236   0.13188   0.15590   0.16033   0.16222
 Alpha virt. eigenvalues --    0.23357   0.26129   0.29982   0.33246   0.39607
 Alpha virt. eigenvalues --    0.43485   0.47728   0.48266   0.49486   0.50746
 Alpha virt. eigenvalues --    0.52701   0.54465   0.55599   0.56035   0.57410
 Alpha virt. eigenvalues --    0.63311   0.65184   0.67078   0.67182   0.69069
 Alpha virt. eigenvalues --    0.69268   0.70718   0.74054   0.74455   0.80559
 Alpha virt. eigenvalues --    0.83406   0.83442   0.95471   0.97778   0.99017
 Alpha virt. eigenvalues --    1.00515   1.02307   1.03564   1.06715   1.11819
 Alpha virt. eigenvalues --    1.12403   1.27953   1.32925   1.34997   1.35806
 Alpha virt. eigenvalues --    1.44427   1.46081   1.47445   1.48396   1.51746
 Alpha virt. eigenvalues --    1.53777   1.55455   1.58728   1.64643   1.65807
 Alpha virt. eigenvalues --    1.67727   1.68466   1.69769   1.70931   1.72467
 Alpha virt. eigenvalues --    1.76073   1.85818   1.86130   1.88527   1.94197
 Alpha virt. eigenvalues --    1.96326   1.97857   2.00477   2.02390   2.04554
 Alpha virt. eigenvalues --    2.10971   2.17227   2.22496   2.23298   2.27842
 Alpha virt. eigenvalues --    2.28135   2.31531   2.40886   2.49864   2.50512
 Alpha virt. eigenvalues --    2.53188   2.56254   2.72887   2.76894   2.96151
 Alpha virt. eigenvalues --    3.09086
          Condensed to atoms (all electrons):
               1          2          3          4          5          6
     1  C    4.616383   0.367718   0.359752   0.699706  -0.040279  -0.039690
     2  H    0.367718   0.701808  -0.059070  -0.003846   0.011772  -0.019326
     3  H    0.359752  -0.059070   0.697239   0.007264  -0.017506   0.008054
     4  C    0.699706  -0.003846   0.007264   4.690555   0.400288   0.372306
     5  H   -0.040279   0.011772  -0.017506   0.400288   0.729890  -0.071576
     6  C   -0.039690  -0.019326   0.008054   0.372306  -0.071576   4.668687
     7  H   -0.008452   0.002200  -0.000071  -0.018587   0.004410   0.374329
     8  H   -0.008405   0.002177  -0.000074  -0.018692   0.004377   0.374479
     9  C    0.003546   0.001107  -0.000337  -0.021833  -0.001297   0.371963
    10  H    0.001364   0.000058  -0.000043  -0.001462   0.001225  -0.071789
    11  C   -0.000575  -0.000005   0.000013   0.003579   0.001365  -0.039861
    12  H   -0.000005   0.000012   0.000000   0.001079   0.000058  -0.019382
    13  H    0.000013   0.000000  -0.000000  -0.000334  -0.000043   0.008098
               7          8          9         10         11         12
     1  C   -0.008452  -0.008405   0.003546   0.001364  -0.000575  -0.000005
     2  H    0.002200   0.002177   0.001107   0.000058  -0.000005   0.000012
     3  H   -0.000071  -0.000074  -0.000337  -0.000043   0.000013   0.000000
     4  C   -0.018587  -0.018692  -0.021833  -0.001462   0.003579   0.001079
     5  H    0.004410   0.004377  -0.001297   0.001225   0.001365   0.000058
     6  C    0.374329   0.374479   0.371963  -0.071789  -0.039861  -0.019382
     7  H    0.655993  -0.031799  -0.018570   0.004407  -0.008295   0.002207
     8  H   -0.031799   0.655909  -0.018471   0.004409  -0.008414   0.002173
     9  C   -0.018570  -0.018471   4.690554   0.399892   0.700391  -0.004063
    10  H    0.004407   0.004409   0.399892   0.730741  -0.040032   0.011861
    11  C   -0.008295  -0.008414   0.700391  -0.040032   4.615917   0.367746
    12  H    0.002207   0.002173  -0.004063   0.011861   0.367746   0.702334
    13  H   -0.000078  -0.000076   0.007733  -0.017778   0.359569  -0.059185
              13
     1  C    0.000013
     2  H    0.000000
     3  H   -0.000000
     4  C   -0.000334
     5  H   -0.000043
     6  C    0.008098
     7  H   -0.000078
     8  H   -0.000076
     9  C    0.007733
    10  H   -0.017778
    11  C    0.359569
    12  H   -0.059185
    13  H    0.697190
 Mulliken charges:
               1
     1  C    0.048924
     2  H   -0.004605
     3  H    0.004779
     4  C   -0.110023
     5  H   -0.022684
     6  C    0.083708
     7  H    0.042306
     8  H    0.042406
     9  C   -0.110615
    10  H   -0.022852
    11  C    0.048603
    12  H   -0.004837
    13  H    0.004890
 Sum of Mulliken charges =  -0.00000
 Mulliken charges with hydrogens summed into heavy atoms:
               1
     1  C    0.049098
     4  C   -0.132707
     6  C    0.168419
     9  C   -0.133467
    11  C    0.048657
 Electronic spatial extent (au):  <R**2>=            597.4184
 Charge=             -0.0000 electrons
 Dipole moment (field-independent basis, Debye):
    X=             -0.0032    Y=             -0.1069    Z=              0.0006  Tot=              0.1070
 Quadrupole moment (field-independent basis, Debye-Ang):
   XX=            -31.9335   YY=            -29.3107   ZZ=            -34.3879
   XY=              0.0086   XZ=              0.0039   YZ=              0.0030
 Traceless Quadrupole moment (field-independent basis, Debye-Ang):
   XX=             -0.0561   YY=              2.5667   ZZ=             -2.5105
   XY=              0.0086   XZ=              0.0039   YZ=              0.0030
 Octapole moment (field-independent basis, Debye-Ang**2):
  XXX=              0.0086  YYY=              0.4742  ZZZ=              0.0072  XYY=             -0.0041
  XXY=              0.9636  XXZ=              0.0099  XZZ=             -0.0058  YZZ=             -1.3472
  YYZ=             -0.0065  XYZ=              0.0069
 Hexadecapole moment (field-independent basis, Debye-Ang**3):
 XXXX=           -667.2773 YYYY=            -91.4806 ZZZZ=            -43.6376 XXXY=              0.0700
 XXXZ=              0.0824 YYYX=              0.0103 YYYZ=              0.0054 ZZZX=              0.0061
 ZZZY=             -0.0020 XXYY=           -123.4519 XXZZ=           -137.4711 YYZZ=            -23.3647
 XXYZ=              0.0353 YYXZ=             -0.0090 ZZXY=              0.0089
 N-N= 1.536321948391D+02 E-N=-7.588788275665D+02  KE= 1.938301373410D+02
 No NMR shielding tensors so no spin-rotation constants.
 Leave Link  601 at Thu Mar  5 23:13:50 2020, MaxMem= 24159191040 cpu:               2.9 elap:               0.1
 (Enter /opt/g16/l701.exe)
 ... and contract with generalized density number  0.
 Compute integral first derivatives.
 Leave Link  701 at Thu Mar  5 23:13:50 2020, MaxMem= 24159191040 cpu:               4.5 elap:               0.4
 (Enter /opt/g16/l702.exe)
 L702 exits ... SP integral derivatives will be done elsewhere.
 Leave Link  702 at Thu Mar  5 23:13:51 2020, MaxMem= 24159191040 cpu:               0.7 elap:               0.1
 (Enter /opt/g16/l703.exe)
 Integral derivatives from FoFJK, PRISM(SPDF).
 Compute integral first derivatives, UseDBF=F ICtDFT=           0.
 Calling FoFJK, ICntrl=      2127 FMM=F ISym2X=0 I1Cent= 0 IOpClX= 0 NMat=1 NMatS=1 NMatT=0.
 FoFJK:  IHMeth= 1 ICntrl=    2127 DoSepK=F KAlg= 0 I1Cent=           0 FoldK=F
 IRaf=         0 NMat=       1 IRICut=       1 DoRegI=T DoRafI=F ISym2E= 0 IDoP0=0 IntGTp=1.
 FoFCou: FMM=F IPFlag=           0 FMFlag=      100000 FMFlg1=         800
         NFxFlg=           0 DoJE=F BraDBF=F KetDBF=F FulRan=T
         wScrn=  0.000000 ICntrl=      2127 IOpCl=  0 I1Cent=           0 NGrid=           0
         NMat0=    1 NMatS0=      1 NMatT0=    0 NMatD0=    1 NMtDS0=    0 NMtDT0=    0
 Symmetry not used in FoFCou.
 Leave Link  703 at Thu Mar  5 23:13:52 2020, MaxMem= 24159191040 cpu:              19.9 elap:               0.9
 (Enter /opt/g16/l716.exe)
 Dipole        =-1.27303512D-03-4.20651399D-02 2.38821328D-04
 ***** Axes restored to original set *****
 -------------------------------------------------------------------
 Center     Atomic                   Forces (Hartrees/Bohr)
 Number     Number              X              Y              Z
 -------------------------------------------------------------------
      1        6           0.012379630    0.040045007   -0.000002229
      2        1           0.005769822   -0.016205361   -0.000003627
      3        1          -0.016546158   -0.003931670    0.000003895
      4        6           0.012342383   -0.052005039   -0.000002586
      5        1          -0.006877196    0.016101220    0.000008370
      6        6          -0.035992953    0.051634586   -0.000215648
      7        1           0.008324883   -0.011824176   -0.016953657
      8        1           0.008336914   -0.011704802    0.017001000
      9        6           0.044679364   -0.028016372    0.000075273
     10        1          -0.013228635    0.011707570    0.000118306
     11        6          -0.041747583    0.000647810   -0.000028463
     12        1           0.013491885   -0.010771326    0.000127397
     13        1           0.009067646    0.014322555   -0.000128032
 -------------------------------------------------------------------
 Cartesian Forces:  Max     0.052005039 RMS     0.020179401
 Leave Link  716 at Thu Mar  5 23:13:52 2020, MaxMem= 24159191040 cpu:               1.0 elap:               0.1
 (Enter /opt/g16/l103.exe)

 GradGradGradGradGradGradGradGradGradGradGradGradGradGradGradGradGradGrad
 Berny optimization.
 FormGI is forming the generalized inverse of G from B-inverse, IUseBI=4.
 Internal  Forces:  Max     0.022194720 RMS     0.009506431
 Search for a local minimum.
 Step number   1 out of a maximum of   60
 All quantities printed in internal units (Hartrees-Bohrs-Radians)
 RMS Force = .95064D-02 SwitMx=.10000D-02 MixMth= 1
 Mixed Optimization -- RFO/linear search
 Second derivative matrix not updated -- first step.
 ITU=  0
     Eigenvalues ---    0.00237   0.00237   0.01215   0.01219   0.02681
     Eigenvalues ---    0.02681   0.02681   0.02681   0.05087   0.06358
     Eigenvalues ---    0.09244   0.12847   0.16000   0.16000   0.16000
     Eigenvalues ---    0.16000   0.16000   0.16000   0.22000   0.22000
     Eigenvalues ---    0.22020   0.28519   0.28519   0.37230   0.37230
     Eigenvalues ---    0.37230   0.37230   0.37230   0.37230   0.37230
     Eigenvalues ---    0.37230   0.53930   0.53930
 RFO step:  Lambda=-1.34841344D-02 EMin= 2.36824194D-03
 Linear search not attempted -- first point.
 Iteration  1 RMS(Cart)=  0.03395395 RMS(Int)=  0.00066572
 Iteration  2 RMS(Cart)=  0.00134326 RMS(Int)=  0.00014227
 Iteration  3 RMS(Cart)=  0.00000031 RMS(Int)=  0.00014227
 ITry= 1 IFail=0 DXMaxC= 9.76D-02 DCOld= 1.00D+10 DXMaxT= 3.00D-01 DXLimC= 3.00D+00 Rises=F
 Variable       Old X    -DE/DX   Delta X   Delta X   Delta X     New X
                                 (Linear)    (Quad)   (Total)
    R1        2.02201   0.01693   0.00000   0.04387   0.04387   2.06588
    R2        2.02201   0.01655   0.00000   0.04289   0.04289   2.06490
    R3        2.56096  -0.01806   0.00000  -0.03267  -0.03267   2.52829
    R4        2.02201   0.01739   0.00000   0.04507   0.04507   2.06708
    R5        2.91018  -0.00707   0.00000  -0.02367  -0.02367   2.88651
    R6        2.02201   0.02219   0.00000   0.05753   0.05753   2.07954
    R7        2.02201   0.02217   0.00000   0.05748   0.05748   2.07949
    R8        2.91018  -0.00733   0.00000  -0.02454  -0.02454   2.88564
    R9        2.02201   0.01750   0.00000   0.04536   0.04536   2.06737
   R10        2.56096  -0.01807   0.00000  -0.03268  -0.03268   2.52827
   R11        2.02201   0.01698   0.00000   0.04401   0.04401   2.06602
   R12        2.02201   0.01650   0.00000   0.04278   0.04278   2.06478
    A1        2.09241  -0.00472   0.00000  -0.02721  -0.02721   2.06520
    A2        2.09836   0.00149   0.00000   0.00860   0.00860   2.10695
    A3        2.09241   0.00323   0.00000   0.01861   0.01861   2.11103
    A4        2.09836  -0.00531   0.00000  -0.01967  -0.01967   2.07868
    A5        2.09241   0.01479   0.00000   0.06336   0.06336   2.15577
    A6        2.09241  -0.00948   0.00000  -0.04369  -0.04369   2.04873
    A7        1.91063  -0.00397   0.00000  -0.01198  -0.01238   1.89825
    A8        1.91063  -0.00395   0.00000  -0.01189  -0.01228   1.89835
    A9        1.91063   0.01557   0.00000   0.07494   0.07456   1.98519
   A10        1.91063   0.00030   0.00000  -0.02694  -0.02741   1.88322
   A11        1.91063  -0.00395   0.00000  -0.01185  -0.01225   1.89838
   A12        1.91063  -0.00400   0.00000  -0.01228  -0.01268   1.89796
   A13        2.09241  -0.00932   0.00000  -0.04354  -0.04354   2.04887
   A14        2.09836   0.01377   0.00000   0.05897   0.05897   2.15733
   A15        2.09241  -0.00445   0.00000  -0.01543  -0.01543   2.07699
   A16        2.09836   0.00160   0.00000   0.00920   0.00920   2.10756
   A17        2.09241   0.00312   0.00000   0.01797   0.01797   2.11038
   A18        2.09241  -0.00471   0.00000  -0.02717  -0.02717   2.06524
    D1        3.14159  -0.00000   0.00000  -0.00001  -0.00001   3.14158
    D2        0.00000  -0.00000   0.00000  -0.00015  -0.00015  -0.00015
    D3        0.00000  -0.00000   0.00000  -0.00002  -0.00002  -0.00002
    D4        3.14159  -0.00001   0.00000  -0.00015  -0.00015   3.14144
    D5        1.04526  -0.00225   0.00000  -0.02409  -0.02406   1.02120
    D6       -1.04914   0.00223   0.00000   0.02353   0.02350  -1.02564
    D7        3.13965   0.00001   0.00000  -0.00004  -0.00004   3.13961
    D8       -2.09633  -0.00225   0.00000  -0.02422  -0.02419  -2.12053
    D9        2.09246   0.00223   0.00000   0.02339   0.02337   2.11582
   D10       -0.00194   0.00001   0.00000  -0.00017  -0.00018  -0.00211
   D11       -0.00041  -0.00000   0.00000  -0.00003  -0.00004  -0.00045
   D12        3.14118   0.00001   0.00000   0.00030   0.00029   3.14147
   D13        2.09398   0.00225   0.00000   0.02393   0.02390   2.11789
   D14       -1.04761   0.00226   0.00000   0.02426   0.02423  -1.02338
   D15       -2.09481  -0.00225   0.00000  -0.02383  -0.02380  -2.11860
   D16        1.04679  -0.00224   0.00000  -0.02350  -0.02347   1.02332
   D17        0.00426  -0.00014   0.00000  -0.00354  -0.00354   0.00072
   D18       -3.13734  -0.00014   0.00000  -0.00353  -0.00353  -3.14086
   D19       -3.13734  -0.00013   0.00000  -0.00321  -0.00321  -3.14054
   D20        0.00426  -0.00013   0.00000  -0.00319  -0.00319   0.00106
         Item               Value     Threshold  Converged?
 Maximum Force            0.022195     0.000450     NO 
 RMS     Force            0.009506     0.000300     NO 
 Maximum Displacement     0.097550     0.001800     NO 
 RMS     Displacement     0.033103     0.001200     NO 
 Predicted change in Energy=-7.062445D-03
 Lowest energy point so far.  Saving SCF results.
 GradGradGradGradGradGradGradGradGradGradGradGradGradGradGradGradGradGrad

 Leave Link  103 at Thu Mar  5 23:13:52 2020, MaxMem= 24159191040 cpu:               2.0 elap:               0.1
 (Enter /opt/g16/l202.exe)
                          Input orientation:                          
 ---------------------------------------------------------------------
 Center     Atomic      Atomic             Coordinates (Angstroms)
 Number     Number       Type             X           Y           Z
 ---------------------------------------------------------------------
      1          6           0       -0.919598    0.218294   -0.012012
      2          1           0       -0.407051   -0.747323   -0.012672
      3          1           0       -2.012272    0.225315   -0.011658
      4          6           0       -0.224106    1.361228   -0.011642
      5          1           0       -0.764056    2.312522   -0.010991
      6          6           0        1.302249    1.419747   -0.011908
      7          1           0        1.676610    0.889831   -0.900738
      8          1           0        1.676893    0.893028    0.878669
      9          6           0        1.863075    2.840042   -0.014160
     10          1           0        1.144465    3.664931   -0.015783
     11          6           0        3.171458    3.119542   -0.014608
     12          1           0        3.914463    2.317527   -0.014013
     13          1           0        3.524619    4.153531   -0.015565
 ---------------------------------------------------------------------
                    Distance matrix (angstroms):
                    1          2          3          4          5
     1  C    0.000000
     2  H    1.093216   0.000000
     3  H    1.092696   1.876902   0.000000
     4  C    1.337912   2.116473   2.118451   0.000000
     5  H    2.099996   3.080601   2.431969   1.093849   0.000000
     6  C    2.525885   2.760054   3.523169   1.527476   2.250925
     7  H    2.825083   2.794740   3.852258   2.150681   2.961849
     8  H    2.826720   2.797867   3.853371   2.150736   2.960522
     9  C    3.823197   4.245310   4.674946   2.557972   2.679572
    10  H    4.017421   4.677092   4.668615   2.679561   2.339121
    11  C    5.015376   5.268622   5.936971   3.823812   4.017409
    12  H    5.270193   5.297999   6.285185   4.247619   4.678523
    13  H    5.936090   6.283024   6.788818   4.674388   4.667126
                    6          7          8          9         10
     6  C    0.000000
     7  H    1.100444   0.000000
     8  H    1.100417   1.779410   0.000000
     9  C    1.527013   2.150376   2.150039   0.000000
    10  H    2.250725   2.960997   2.960907   1.094004   0.000000
    11  C    2.526511   2.826909   2.826488   1.337904   2.099084
    12  H    2.762187   2.798676   2.798714   2.116888   3.080323
    13  H    3.523140   3.853623   3.852872   2.118014   2.429787
                   11         12         13
    11  C    0.000000
    12  H    1.093291   0.000000
    13  H    1.092637   1.876936   0.000000
 Stoichiometry    C5H8
 Framework group  C1[X(C5H8)]
 Deg. of freedom    33
 Full point group                 C1      NOp   1
 RotChk:  IX=0 Diff= 1.39D-04
 Largest Abelian subgroup         C1      NOp   1
 Largest concise Abelian subgroup C1      NOp   1
                         Standard orientation:                         
 ---------------------------------------------------------------------
 Center     Atomic      Atomic             Coordinates (Angstroms)
 Number     Number       Type             X           Y           Z
 ---------------------------------------------------------------------
      1          6           0       -2.507561   -0.130658   -0.000690
      2          1           0       -2.648003   -1.214815   -0.001880
      3          1           0       -3.394827    0.507106   -0.000598
      4          6           0       -1.279117    0.399373    0.000627
      5          1           0       -1.169313    1.487697    0.001792
      6          6           0       -0.000174   -0.435783    0.000774
      7          1           0       -0.000790   -1.084228   -0.888325
      8          1           0        0.000237   -1.082518    0.891084
      9          6           0        1.278854    0.398396   -0.000377
     10          1           0        1.169805    1.486951   -0.001615
     11          6           0        2.507815   -0.130417   -0.000315
     12          1           0        2.649996   -1.214423   -0.000084
     13          1           0        3.393991    0.508760   -0.000484
 ---------------------------------------------------------------------
 Rotational constants (GHZ):          27.4437222           2.1792543           2.0450048
 Leave Link  202 at Thu Mar  5 23:13:52 2020, MaxMem= 24159191040 cpu:               0.2 elap:               0.0
 (Enter /opt/g16/l301.exe)
 Standard basis: CC-pVDZ (5D, 7F)
 Ernie: Thresh=  0.10000D-02 Tol=  0.10000D-05 Strict=F.
 Ernie:  10 primitive shells out of 150 were deleted.
 There are   115 symmetry adapted cartesian basis functions of A   symmetry.
 There are   110 symmetry adapted basis functions of A   symmetry.
   110 basis functions,   221 primitive gaussians,   115 cartesian basis functions
    19 alpha electrons       19 beta electrons
       nuclear repulsion energy       153.0246656615 Hartrees.
 IExCor=  402 DFT=T Ex+Corr=B3LYP ExCW=0 ScaHFX=  0.200000
 ScaDFX=  0.800000  0.720000  1.000000  0.810000 ScalE2=  1.000000  1.000000
 IRadAn=      5 IRanWt=     -1 IRanGd=            0 ICorTp=0 IEmpDi=  4
 NAtoms=   13 NActive=   13 NUniq=   13 SFac= 1.00D+00 NAtFMM=   60 NAOKFM=F Big=F
 Integral buffers will be    131072 words long.
 Raffenetti 2 integral format.
 Two-electron integral symmetry is turned on.
 Leave Link  301 at Thu Mar  5 23:13:52 2020, MaxMem= 24159191040 cpu:               1.3 elap:               0.1
 (Enter /opt/g16/l302.exe)
 NPDir=0 NMtPBC=     1 NCelOv=     1 NCel=       1 NClECP=     1 NCelD=      1
         NCelK=      1 NCelE2=     1 NClLst=     1 CellRange=     0.0.
 One-electron integrals computed using PRISM.
 One-electron integral symmetry used in STVInt
 NBasis=   110 RedAO= T EigKep=  2.17D-03  NBF=   110
 NBsUse=   110 1.00D-06 EigRej= -1.00D+00 NBFU=   110
 Precomputing XC quadrature grid using
 IXCGrd= 4 IRadAn=           5 IRanWt=          -1 IRanGd=           0 AccXCQ= 0.00D+00.
 Generated NRdTot=       0 NPtTot=           0 NUsed=           0 NTot=          32
 NSgBfM=   115   115   115   115   115 MxSgAt=    13 MxSgA2=    13.
 Leave Link  302 at Thu Mar  5 23:13:52 2020, MaxMem= 24159191040 cpu:               3.9 elap:               0.2
 (Enter /opt/g16/l303.exe)
 DipDrv:  MaxL=1.
 Leave Link  303 at Thu Mar  5 23:13:52 2020, MaxMem= 24159191040 cpu:               0.7 elap:               0.0
 (Enter /opt/g16/l401.exe)
 Initial guess from the checkpoint file:  "C5H8_opt.chk"
 B after Tr=     0.000000   -0.000000    0.000000
         Rot=    1.000000   -0.000004   -0.000001   -0.000039 Ang=  -0.00 deg.
 Guess basis will be translated and rotated to current coordinates.
 JPrj=2 DoOrth=T DoCkMO=T.
 Generating alternative initial guess.
 ExpMin= 1.22D-01 ExpMax= 6.67D+03 ExpMxC= 2.28D+02 IAcc=2 IRadAn=         4 AccDes= 0.00D+00
 Harris functional with IExCor=  402 and IRadAn=       4 diagonalized for initial guess.
 HarFok:  IExCor=  402 AccDes= 0.00D+00 IRadAn=         4 IDoV= 1 UseB2=F ITyADJ=14
 ICtDFT=  3500011 ScaDFX=  1.000000  1.000000  1.000000  1.000000
 FoFCou: FMM=F IPFlag=           0 FMFlag=      100000 FMFlg1=           0
         NFxFlg=           0 DoJE=T BraDBF=F KetDBF=T FulRan=T
         wScrn=  0.000000 ICntrl=       500 IOpCl=  0 I1Cent=   200000004 NGrid=           0
         NMat0=    1 NMatS0=      1 NMatT0=    0 NMatD0=    1 NMtDS0=    0 NMtDT0=    0
 Petite list used in FoFCou.
 Harris En= -195.337666806158    
 Leave Link  401 at Thu Mar  5 23:13:53 2020, MaxMem= 24159191040 cpu:               6.9 elap:               0.3
 (Enter /opt/g16/l502.exe)
 Integral symmetry usage will be decided dynamically.
 Closed shell SCF:
 Using DIIS extrapolation, IDIIS=  1040.
 NGot= 24159191040 LenX= 24159160401 LenY= 24159146735
 Requested convergence on RMS density matrix=1.00D-08 within 128 cycles.
 Requested convergence on MAX density matrix=1.00D-06.
 Requested convergence on             energy=1.00D-06.
 No special actions if energy rises.
 Fock matrices will be formed incrementally for  20 cycles.
 Integral accuracy reduced to 1.0D-05 until final iterations.

 Cycle   1  Pass 0  IDiag  1:
 FoFJK:  IHMeth= 1 ICntrl=       0 DoSepK=F KAlg= 0 I1Cent=           0 FoldK=F
 IRaf= 980000000 NMat=       1 IRICut=       1 DoRegI=T DoRafI=F ISym2E= 0 IDoP0=0 IntGTp=1.
 FoFCou: FMM=F IPFlag=           0 FMFlag=      100000 FMFlg1=           0
         NFxFlg=           0 DoJE=F BraDBF=F KetDBF=F FulRan=T
         wScrn=  0.000000 ICntrl=         0 IOpCl=  0 I1Cent=           0 NGrid=           0
         NMat0=    1 NMatS0=      1 NMatT0=    0 NMatD0=    1 NMtDS0=    0 NMtDT0=    0
 Symmetry not used in FoFCou.
 E= -195.298246699203    
 DIIS: error= 3.06D-03 at cycle   1 NSaved=   1.
 NSaved= 1 IEnMin= 1 EnMin= -195.298246699203     IErMin= 1 ErrMin= 3.06D-03
 ErrMax= 3.06D-03  0.00D+00 EMaxC= 1.00D-01 BMatC= 1.07D-03 BMatP= 1.07D-03
 IDIUse=3 WtCom= 9.69D-01 WtEn= 3.06D-02
 Coeff-Com:  0.100D+01
 Coeff-En:   0.100D+01
 Coeff:      0.100D+01
 Gap=     0.685 Goal=   None    Shift=    0.000
 GapD=    0.685 DampG=2.000 DampE=1.000 DampFc=2.0000 IDamp=-1.
 RMSDP=6.19D-04 MaxDP=7.21D-03              OVMax= 1.47D-02

 Cycle   2  Pass 0  IDiag  1:
 RMSU=  6.17D-04    CP:  9.98D-01
 E= -195.300027151546     Delta-E=       -0.001780452342 Rises=F Damp=F
 DIIS: error= 5.98D-04 at cycle   2 NSaved=   2.
 NSaved= 2 IEnMin= 2 EnMin= -195.300027151546     IErMin= 2 ErrMin= 5.98D-04
 ErrMax= 5.98D-04  0.00D+00 EMaxC= 1.00D-01 BMatC= 4.53D-05 BMatP= 1.07D-03
 IDIUse=3 WtCom= 9.94D-01 WtEn= 5.98D-03
 Coeff-Com:  0.452D-01 0.955D+00
 Coeff-En:   0.000D+00 0.100D+01
 Coeff:      0.449D-01 0.955D+00
 Gap=     0.241 Goal=   None    Shift=    0.000
 RMSDP=9.81D-05 MaxDP=2.31D-03 DE=-1.78D-03 OVMax= 3.83D-03

 Cycle   3  Pass 0  IDiag  1:
 RMSU=  9.79D-05    CP:  9.98D-01  1.01D+00
 E= -195.300023567110     Delta-E=        0.000003584436 Rises=F Damp=F
 DIIS: error= 7.85D-04 at cycle   3 NSaved=   3.
 NSaved= 3 IEnMin= 2 EnMin= -195.300027151546     IErMin= 2 ErrMin= 5.98D-04
 ErrMax= 7.85D-04  0.00D+00 EMaxC= 1.00D-01 BMatC= 5.09D-05 BMatP= 4.53D-05
 IDIUse=3 WtCom= 2.63D-01 WtEn= 7.37D-01
 Coeff-Com: -0.849D-02 0.519D+00 0.490D+00
 Coeff-En:   0.000D+00 0.519D+00 0.481D+00
 Coeff:     -0.223D-02 0.519D+00 0.483D+00
 Gap=     0.241 Goal=   None    Shift=    0.000
 RMSDP=6.89D-05 MaxDP=1.94D-03 DE= 3.58D-06 OVMax= 3.70D-03

 Cycle   4  Pass 0  IDiag  1:
 RMSU=  3.93D-05    CP:  9.98D-01  1.03D+00  4.34D-01
 E= -195.300069100276     Delta-E=       -0.000045533166 Rises=F Damp=F
 DIIS: error= 3.09D-04 at cycle   4 NSaved=   4.
 NSaved= 4 IEnMin= 4 EnMin= -195.300069100276     IErMin= 4 ErrMin= 3.09D-04
 ErrMax= 3.09D-04  0.00D+00 EMaxC= 1.00D-01 BMatC= 6.71D-06 BMatP= 4.53D-05
 IDIUse=3 WtCom= 9.97D-01 WtEn= 3.09D-03
 Coeff-Com: -0.911D-02 0.165D+00 0.290D+00 0.554D+00
 Coeff-En:   0.000D+00 0.000D+00 0.114D+00 0.886D+00
 Coeff:     -0.909D-02 0.165D+00 0.290D+00 0.555D+00
 Gap=     0.241 Goal=   None    Shift=    0.000
 RMSDP=2.44D-05 MaxDP=6.32D-04 DE=-4.55D-05 OVMax= 1.42D-03

 Cycle   5  Pass 0  IDiag  1:
 RMSU=  1.23D-05    CP:  9.98D-01  1.03D+00  5.59D-01  5.66D-01
 E= -195.300075724967     Delta-E=       -0.000006624691 Rises=F Damp=F
 DIIS: error= 7.63D-05 at cycle   5 NSaved=   5.
 NSaved= 5 IEnMin= 5 EnMin= -195.300075724967     IErMin= 5 ErrMin= 7.63D-05
 ErrMax= 7.63D-05  0.00D+00 EMaxC= 1.00D-01 BMatC= 6.97D-07 BMatP= 6.71D-06
 IDIUse=1 WtCom= 1.00D+00 WtEn= 0.00D+00
 Coeff-Com: -0.443D-02 0.402D-01 0.116D+00 0.322D+00 0.526D+00
 Coeff:     -0.443D-02 0.402D-01 0.116D+00 0.322D+00 0.526D+00
 Gap=     0.241 Goal=   None    Shift=    0.000
 RMSDP=6.43D-06 MaxDP=1.59D-04 DE=-6.62D-06 OVMax= 2.34D-04

 Initial convergence to 1.0D-05 achieved.  Increase integral accuracy.
 Cycle   6  Pass 1  IDiag  1:
 E= -195.300065237235     Delta-E=        0.000010487732 Rises=F Damp=F
 DIIS: error= 1.42D-05 at cycle   1 NSaved=   1.
 NSaved= 1 IEnMin= 1 EnMin= -195.300065237235     IErMin= 1 ErrMin= 1.42D-05
 ErrMax= 1.42D-05  0.00D+00 EMaxC= 1.00D-01 BMatC= 1.15D-08 BMatP= 1.15D-08
 IDIUse=1 WtCom= 1.00D+00 WtEn= 0.00D+00
 Coeff-Com:  0.100D+01
 Coeff:      0.100D+01
 Gap=     0.241 Goal=   None    Shift=    0.000
 RMSDP=6.43D-06 MaxDP=1.59D-04 DE= 1.05D-05 OVMax= 3.58D-05

 Cycle   7  Pass 1  IDiag  1:
 RMSU=  5.06D-06    CP:  1.00D+00
 E= -195.300065242196     Delta-E=       -0.000000004960 Rises=F Damp=F
 DIIS: error= 7.66D-06 at cycle   2 NSaved=   2.
 NSaved= 2 IEnMin= 2 EnMin= -195.300065242196     IErMin= 2 ErrMin= 7.66D-06
 ErrMax= 7.66D-06  0.00D+00 EMaxC= 1.00D-01 BMatC= 3.92D-09 BMatP= 1.15D-08
 IDIUse=1 WtCom= 1.00D+00 WtEn= 0.00D+00
 Coeff-Com:  0.334D+00 0.666D+00
 Coeff:      0.334D+00 0.666D+00
 Gap=     0.241 Goal=   None    Shift=    0.000
 RMSDP=7.55D-07 MaxDP=1.91D-05 DE=-4.96D-09 OVMax= 2.20D-05

 Cycle   8  Pass 1  IDiag  1:
 RMSU=  7.44D-07    CP:  1.00D+00  9.75D-01
 E= -195.300065245395     Delta-E=       -0.000000003200 Rises=F Damp=F
 DIIS: error= 3.72D-06 at cycle   3 NSaved=   3.
 NSaved= 3 IEnMin= 3 EnMin= -195.300065245395     IErMin= 3 ErrMin= 3.72D-06
 ErrMax= 3.72D-06  0.00D+00 EMaxC= 1.00D-01 BMatC= 9.32D-10 BMatP= 3.92D-09
 IDIUse=1 WtCom= 1.00D+00 WtEn= 0.00D+00
 Coeff-Com:  0.375D-01 0.331D+00 0.632D+00
 Coeff:      0.375D-01 0.331D+00 0.632D+00
 Gap=     0.241 Goal=   None    Shift=    0.000
 RMSDP=2.84D-07 MaxDP=7.22D-06 DE=-3.20D-09 OVMax= 1.18D-05

 Cycle   9  Pass 1  IDiag  1:
 RMSU=  1.64D-07    CP:  1.00D+00  9.89D-01  7.03D-01
 E= -195.300065246235     Delta-E=       -0.000000000840 Rises=F Damp=F
 DIIS: error= 1.34D-06 at cycle   4 NSaved=   4.
 NSaved= 4 IEnMin= 4 EnMin= -195.300065246235     IErMin= 4 ErrMin= 1.34D-06
 ErrMax= 1.34D-06  0.00D+00 EMaxC= 1.00D-01 BMatC= 1.27D-10 BMatP= 9.32D-10
 IDIUse=1 WtCom= 1.00D+00 WtEn= 0.00D+00
 Coeff-Com:  0.447D-02 0.166D+00 0.384D+00 0.445D+00
 Coeff:      0.447D-02 0.166D+00 0.384D+00 0.445D+00
 Gap=     0.241 Goal=   None    Shift=    0.000
 RMSDP=1.05D-07 MaxDP=3.26D-06 DE=-8.40D-10 OVMax= 5.52D-06

 Cycle  10  Pass 1  IDiag  1:
 RMSU=  4.75D-08    CP:  1.00D+00  9.90D-01  7.23D-01  4.41D-01
 E= -195.300065246364     Delta-E=       -0.000000000129 Rises=F Damp=F
 DIIS: error= 2.85D-07 at cycle   5 NSaved=   5.
 NSaved= 5 IEnMin= 5 EnMin= -195.300065246364     IErMin= 5 ErrMin= 2.85D-07
 ErrMax= 2.85D-07  0.00D+00 EMaxC= 1.00D-01 BMatC= 9.45D-12 BMatP= 1.27D-10
 IDIUse=1 WtCom= 1.00D+00 WtEn= 0.00D+00
 Coeff-Com: -0.122D-02 0.628D-01 0.159D+00 0.260D+00 0.519D+00
 Coeff:     -0.122D-02 0.628D-01 0.159D+00 0.260D+00 0.519D+00
 Gap=     0.241 Goal=   None    Shift=    0.000
 RMSDP=2.44D-08 MaxDP=6.20D-07 DE=-1.29D-10 OVMax= 1.24D-06

 Cycle  11  Pass 1  IDiag  1:
 RMSU=  1.19D-08    CP:  1.00D+00  9.91D-01  7.18D-01  4.90D-01  6.02D-01
 E= -195.300065246371     Delta-E=       -0.000000000007 Rises=F Damp=F
 DIIS: error= 2.88D-08 at cycle   6 NSaved=   6.
 NSaved= 6 IEnMin= 6 EnMin= -195.300065246371     IErMin= 6 ErrMin= 2.88D-08
 ErrMax= 2.88D-08  0.00D+00 EMaxC= 1.00D-01 BMatC= 1.42D-13 BMatP= 9.45D-12
 IDIUse=1 WtCom= 1.00D+00 WtEn= 0.00D+00
 Coeff-Com: -0.661D-03 0.212D-01 0.552D-01 0.929D-01 0.218D+00 0.613D+00
 Coeff:     -0.661D-03 0.212D-01 0.552D-01 0.929D-01 0.218D+00 0.613D+00
 Gap=     0.241 Goal=   None    Shift=    0.000
 RMSDP=4.12D-09 MaxDP=1.62D-07 DE=-6.76D-12 OVMax= 2.16D-07

 SCF Done:  E(RB3LYP) =  -195.300065246     A.U. after   11 cycles
            NFock= 11  Conv=0.41D-08     -V/T= 2.0084
 KE= 1.936672800628D+02 PE=-7.575288928655D+02 EE= 2.155368818949D+02
 Leave Link  502 at Thu Mar  5 23:13:55 2020, MaxMem= 24159191040 cpu:              57.6 elap:               2.4
 (Enter /opt/g16/l701.exe)
 ... and contract with generalized density number  0.
 Compute integral first derivatives.
 Leave Link  701 at Thu Mar  5 23:13:55 2020, MaxMem= 24159191040 cpu:               3.0 elap:               0.2
 (Enter /opt/g16/l702.exe)
 L702 exits ... SP integral derivatives will be done elsewhere.
 Leave Link  702 at Thu Mar  5 23:13:55 2020, MaxMem= 24159191040 cpu:               0.4 elap:               0.0
 (Enter /opt/g16/l703.exe)
 Integral derivatives from FoFJK, PRISM(SPDF).
 Compute integral first derivatives, UseDBF=F ICtDFT=           0.
 Calling FoFJK, ICntrl=      2127 FMM=F ISym2X=0 I1Cent= 0 IOpClX= 0 NMat=1 NMatS=1 NMatT=0.
 FoFJK:  IHMeth= 1 ICntrl=    2127 DoSepK=F KAlg= 0 I1Cent=           0 FoldK=F
 IRaf=         0 NMat=       1 IRICut=       1 DoRegI=T DoRafI=F ISym2E= 0 IDoP0=0 IntGTp=1.
 FoFCou: FMM=F IPFlag=           0 FMFlag=      100000 FMFlg1=         800
         NFxFlg=           0 DoJE=F BraDBF=F KetDBF=F FulRan=T
         wScrn=  0.000000 ICntrl=      2127 IOpCl=  0 I1Cent=           0 NGrid=           0
         NMat0=    1 NMatS0=      1 NMatT0=    0 NMatD0=    1 NMtDS0=    0 NMtDT0=    0
 Symmetry not used in FoFCou.
 Leave Link  703 at Thu Mar  5 23:13:56 2020, MaxMem= 24159191040 cpu:              14.2 elap:               0.6
 (Enter /opt/g16/l716.exe)
 Dipole        =-4.70188804D-04-4.68805454D-02 1.98054217D-04
 ***** Axes restored to original set *****
 -------------------------------------------------------------------
 Center     Atomic                   Forces (Hartrees/Bohr)
 Number     Number              X              Y              Z
 -------------------------------------------------------------------
      1        6           0.000821464    0.006173496   -0.000003661
      2        1          -0.001437064   -0.001928841   -0.000002523
      3        1           0.000242076   -0.001686142    0.000000276
      4        6           0.006022678   -0.007173959    0.000000261
      5        1          -0.000222194    0.002125035    0.000008563
      6        6          -0.009922583    0.013893377   -0.000044739
      7        1           0.001990005   -0.002821564   -0.000251068
      8        1           0.001979430   -0.002840204    0.000282687
      9        6           0.004708255   -0.007627150   -0.000028196
     10        1          -0.001948937    0.000802441    0.000037043
     11        6          -0.006033375    0.001102320   -0.000000924
     12        1           0.002246384    0.000739740    0.000031529
     13        1           0.001553860   -0.000758550   -0.000029248
 -------------------------------------------------------------------
 Cartesian Forces:  Max     0.013893377 RMS     0.003877284
 Leave Link  716 at Thu Mar  5 23:13:56 2020, MaxMem= 24159191040 cpu:               0.5 elap:               0.0
 (Enter /opt/g16/l103.exe)

 GradGradGradGradGradGradGradGradGradGradGradGradGradGradGradGradGradGrad
 Berny optimization.
 Using GEDIIS/GDIIS optimizer.
 FormGI is forming the generalized inverse of G from B-inverse, IUseBI=4.
 Internal  Forces:  Max     0.005327564 RMS     0.001814238
 Search for a local minimum.
 Step number   2 out of a maximum of   60
 All quantities printed in internal units (Hartrees-Bohrs-Radians)
 RMS Force = .18142D-02 SwitMx=.10000D-02 MixMth= 1
 Mixed Optimization -- RFO/linear search
 Update second derivatives using D2CorX and points    1    2
 DE= -7.68D-03 DEPred=-7.06D-03 R= 1.09D+00
 TightC=F SS=  1.41D+00  RLast= 2.17D-01 DXNew= 5.0454D-01 6.5224D-01
 Trust test= 1.09D+00 RLast= 2.17D-01 DXMaxT set to 5.05D-01
 ITU=  1  0
 Use linear search instead of GDIIS.
     Eigenvalues ---    0.00237   0.00237   0.01232   0.01234   0.02681
     Eigenvalues ---    0.02681   0.02681   0.02682   0.04531   0.06033
     Eigenvalues ---    0.09961   0.13297   0.15176   0.16000   0.16000
     Eigenvalues ---    0.16000   0.16000   0.16028   0.20362   0.22000
     Eigenvalues ---    0.22603   0.27636   0.28519   0.36848   0.37230
     Eigenvalues ---    0.37230   0.37230   0.37230   0.37230   0.37230
     Eigenvalues ---    0.39419   0.53762   0.53930
 RFO step:  Lambda=-6.50504703D-04 EMin= 2.36824087D-03
 Quartic linear search produced a step of  0.19378.
 Iteration  1 RMS(Cart)=  0.02163123 RMS(Int)=  0.00026140
 Iteration  2 RMS(Cart)=  0.00036774 RMS(Int)=  0.00005772
 Iteration  3 RMS(Cart)=  0.00000004 RMS(Int)=  0.00005772
 ITry= 1 IFail=0 DXMaxC= 7.13D-02 DCOld= 1.00D+10 DXMaxT= 5.05D-01 DXLimC= 3.00D+00 Rises=F
 Variable       Old X    -DE/DX   Delta X   Delta X   Delta X     New X
                                 (Linear)    (Quad)   (Total)
    R1        2.06588   0.00103   0.00850  -0.00331   0.00519   2.07107
    R2        2.06490  -0.00025   0.00831  -0.00726   0.00105   2.06594
    R3        2.52829  -0.00199  -0.00633   0.00052  -0.00581   2.52248
    R4        2.06708   0.00196   0.00873  -0.00052   0.00822   2.07529
    R5        2.88651  -0.00533  -0.00459  -0.01869  -0.02327   2.86324
    R6        2.07954   0.00224   0.01115  -0.00150   0.00965   2.08919
    R7        2.07949   0.00226   0.01114  -0.00141   0.00973   2.08921
    R8        2.88564  -0.00515  -0.00476  -0.01780  -0.02256   2.86308
    R9        2.06737   0.00189   0.00879  -0.00079   0.00800   2.07536
   R10        2.52827  -0.00196  -0.00633   0.00060  -0.00573   2.52254
   R11        2.06602   0.00098   0.00853  -0.00347   0.00505   2.07107
   R12        2.06478  -0.00022   0.00829  -0.00713   0.00116   2.06595
    A1        2.06520  -0.00266  -0.00527  -0.01567  -0.02095   2.04426
    A2        2.10695   0.00183   0.00167   0.01234   0.01401   2.12096
    A3        2.11103   0.00082   0.00361   0.00333   0.00694   2.11796
    A4        2.07868  -0.00114  -0.00381  -0.00141  -0.00522   2.07346
    A5        2.15577   0.00404   0.01228   0.01238   0.02466   2.18043
    A6        2.04873  -0.00291  -0.00847  -0.01097  -0.01943   2.02929
    A7        1.89825   0.00038  -0.00240   0.00777   0.00520   1.90345
    A8        1.89835   0.00036  -0.00238   0.00762   0.00507   1.90342
    A9        1.98519   0.00018   0.01445  -0.00350   0.01074   1.99593
   A10        1.88322  -0.00183  -0.00531  -0.02979  -0.03517   1.84805
   A11        1.89838   0.00038  -0.00237   0.00784   0.00530   1.90369
   A12        1.89796   0.00041  -0.00246   0.00820   0.00558   1.90354
   A13        2.04887  -0.00289  -0.00844  -0.01106  -0.01950   2.02937
   A14        2.15733   0.00382   0.01143   0.01184   0.02327   2.18059
   A15        2.07699  -0.00094  -0.00299  -0.00078  -0.00377   2.07322
   A16        2.10756   0.00178   0.00178   0.01186   0.01364   2.12120
   A17        2.11038   0.00088   0.00348   0.00386   0.00734   2.11773
   A18        2.06524  -0.00266  -0.00527  -0.01572  -0.02098   2.04426
    D1        3.14158  -0.00000  -0.00000  -0.00007  -0.00007   3.14151
    D2       -0.00015  -0.00000  -0.00003  -0.00006  -0.00009  -0.00024
    D3       -0.00002  -0.00000  -0.00000  -0.00004  -0.00004  -0.00006
    D4        3.14144  -0.00000  -0.00003  -0.00003  -0.00006   3.14138
    D5        1.02120  -0.00089  -0.00466  -0.01555  -0.02024   1.00096
    D6       -1.02564   0.00089   0.00455   0.01144   0.01602  -1.00962
    D7        3.13961  -0.00001  -0.00001  -0.00223  -0.00224   3.13738
    D8       -2.12053  -0.00089  -0.00469  -0.01554  -0.02025  -2.14078
    D9        2.11582   0.00089   0.00453   0.01145   0.01601   2.13183
   D10       -0.00211  -0.00001  -0.00003  -0.00222  -0.00225  -0.00436
   D11       -0.00045   0.00000  -0.00001   0.00039   0.00038  -0.00007
   D12        3.14147  -0.00001   0.00006  -0.00021  -0.00015   3.14132
   D13        2.11789   0.00088   0.00463   0.01367   0.01833   2.13622
   D14       -1.02338   0.00087   0.00470   0.01308   0.01780  -1.00558
   D15       -2.11860  -0.00087  -0.00461  -0.01296  -0.01759  -2.13620
   D16        1.02332  -0.00088  -0.00455  -0.01355  -0.01812   1.00519
   D17        0.00072  -0.00003  -0.00069  -0.00049  -0.00117  -0.00046
   D18       -3.14086  -0.00002  -0.00068  -0.00038  -0.00106   3.14126
   D19       -3.14054  -0.00003  -0.00062  -0.00109  -0.00171   3.14093
   D20        0.00106  -0.00003  -0.00062  -0.00098  -0.00160  -0.00054
         Item               Value     Threshold  Converged?
 Maximum Force            0.005328     0.000450     NO 
 RMS     Force            0.001814     0.000300     NO 
 Maximum Displacement     0.071291     0.001800     NO 
 RMS     Displacement     0.021755     0.001200     NO 
 Predicted change in Energy=-4.973725D-04
 Lowest energy point so far.  Saving SCF results.
 GradGradGradGradGradGradGradGradGradGradGradGradGradGradGradGradGradGrad

 Leave Link  103 at Thu Mar  5 23:13:56 2020, MaxMem= 24159191040 cpu:               0.5 elap:               0.1
 (Enter /opt/g16/l202.exe)
                          Input orientation:                          
 ---------------------------------------------------------------------
 Center     Atomic      Atomic             Coordinates (Angstroms)
 Number     Number       Type             X           Y           Z
 ---------------------------------------------------------------------
      1          6           0       -0.926435    0.226016   -0.012817
      2          1           0       -0.444776   -0.758432   -0.015134
      3          1           0       -2.019499    0.246171   -0.012212
      4          6           0       -0.211058    1.352971   -0.010842
      5          1           0       -0.739994    2.315394   -0.008627
      6          6           0        1.302634    1.419660   -0.011221
      7          1           0        1.687826    0.874090   -0.892259
      8          1           0        1.688056    0.878235    0.872284
      9          6           0        1.866160    2.826033   -0.014466
     10          1           0        1.132869    3.643591   -0.016259
     11          6           0        3.166276    3.128654   -0.015049
     12          1           0        3.936344    2.348827   -0.012717
     13          1           0        3.508346    4.167008   -0.017762
 ---------------------------------------------------------------------
                    Distance matrix (angstroms):
                    1          2          3          4          5
     1  C    0.000000
     2  H    1.095965   0.000000
     3  H    1.093250   1.867884   0.000000
     4  C    1.334839   2.124304   2.120252   0.000000
     5  H    2.097684   3.087977   2.432865   1.098197   0.000000
     6  C    2.528544   2.792408   3.523301   1.515160   2.230398
     7  H    2.833333   2.825326   3.861739   2.147552   2.958457
     8  H    2.836258   2.831106   3.863652   2.147538   2.955818
     9  C    3.815583   4.264835   4.664123   2.546519   2.655716
    10  H    3.990057   4.676192   4.634642   2.655768   2.296036
    11  C    5.017529   5.305576   5.933042   3.815685   3.990035
    12  H    5.305934   5.371152   6.316109   4.265286   4.676459
    13  H    5.932852   6.315627   6.777173   4.663992   4.634324
                    6          7          8          9         10
     6  C    0.000000
     7  H    1.105552   0.000000
     8  H    1.105564   1.764548   0.000000
     9  C    1.515076   2.147651   2.147548   0.000000
    10  H    2.230407   2.957277   2.957184   1.098235   0.000000
    11  C    2.528603   2.835202   2.834939   1.334871   2.097596
    12  H    2.792808   2.829182   2.828545   2.124474   3.088025
    13  H    3.523228   3.862946   3.862858   2.120142   2.432460
                   11         12         13
    11  C    0.000000
    12  H    1.095965   0.000000
    13  H    1.093252   1.867884   0.000000
 Stoichiometry    C5H8
 Framework group  C1[X(C5H8)]
 Deg. of freedom    33
 Full point group                 C1      NOp   1
 RotChk:  IX=0 Diff= 1.81D-04
 Largest Abelian subgroup         C1      NOp   1
 Largest concise Abelian subgroup C1      NOp   1
                         Standard orientation:                         
 ---------------------------------------------------------------------
 Center     Atomic      Atomic             Coordinates (Angstroms)
 Number     Number       Type             X           Y           Z
 ---------------------------------------------------------------------
      1          6           0       -2.508743   -0.119262   -0.001490
      2          1           0       -2.685363   -1.200898   -0.004255
      3          1           0       -3.388678    0.529515   -0.001208
      4          6           0       -1.273281    0.386130    0.001385
      5          1           0       -1.147966    1.477151    0.004020
      6          6           0       -0.000009   -0.435142    0.001512
      7          1           0       -0.000898   -1.102709   -0.879737
      8          1           0        0.000629   -1.100018    0.884808
      9          6           0        1.273237    0.386014   -0.000710
     10          1           0        1.148061    1.477091   -0.002235
     11          6           0        2.508785   -0.119260   -0.000711
     12          1           0        2.685786   -1.200835    0.001386
     13          1           0        3.388495    0.529822   -0.002691
 ---------------------------------------------------------------------
 Rotational constants (GHZ):          27.9678456           2.1795797           2.0477132
 Leave Link  202 at Thu Mar  5 23:13:56 2020, MaxMem= 24159191040 cpu:               0.2 elap:               0.0
 (Enter /opt/g16/l301.exe)
 Standard basis: CC-pVDZ (5D, 7F)
 Ernie: Thresh=  0.10000D-02 Tol=  0.10000D-05 Strict=F.
 Ernie:  10 primitive shells out of 150 were deleted.
 There are   115 symmetry adapted cartesian basis functions of A   symmetry.
 There are   110 symmetry adapted basis functions of A   symmetry.
   110 basis functions,   221 primitive gaussians,   115 cartesian basis functions
    19 alpha electrons       19 beta electrons
       nuclear repulsion energy       153.2642234665 Hartrees.
 IExCor=  402 DFT=T Ex+Corr=B3LYP ExCW=0 ScaHFX=  0.200000
 ScaDFX=  0.800000  0.720000  1.000000  0.810000 ScalE2=  1.000000  1.000000
 IRadAn=      5 IRanWt=     -1 IRanGd=            0 ICorTp=0 IEmpDi=  4
 NAtoms=   13 NActive=   13 NUniq=   13 SFac= 1.00D+00 NAtFMM=   60 NAOKFM=F Big=F
 Integral buffers will be    131072 words long.
 Raffenetti 2 integral format.
 Two-electron integral symmetry is turned on.
 Leave Link  301 at Thu Mar  5 23:13:56 2020, MaxMem= 24159191040 cpu:               1.3 elap:               0.1
 (Enter /opt/g16/l302.exe)
 NPDir=0 NMtPBC=     1 NCelOv=     1 NCel=       1 NClECP=     1 NCelD=      1
         NCelK=      1 NCelE2=     1 NClLst=     1 CellRange=     0.0.
 One-electron integrals computed using PRISM.
 One-electron integral symmetry used in STVInt
 NBasis=   110 RedAO= T EigKep=  2.09D-03  NBF=   110
 NBsUse=   110 1.00D-06 EigRej= -1.00D+00 NBFU=   110
 Precomputing XC quadrature grid using
 IXCGrd= 4 IRadAn=           5 IRanWt=          -1 IRanGd=           0 AccXCQ= 0.00D+00.
 Generated NRdTot=       0 NPtTot=           0 NUsed=           0 NTot=          32
 NSgBfM=   115   115   115   115   115 MxSgAt=    13 MxSgA2=    13.
 Leave Link  302 at Thu Mar  5 23:13:56 2020, MaxMem= 24159191040 cpu:               3.9 elap:               0.2
 (Enter /opt/g16/l303.exe)
 DipDrv:  MaxL=1.
 Leave Link  303 at Thu Mar  5 23:13:56 2020, MaxMem= 24159191040 cpu:               0.7 elap:               0.0
 (Enter /opt/g16/l401.exe)
 Initial guess from the checkpoint file:  "C5H8_opt.chk"
 B after Tr=    -0.000000   -0.000000   -0.000000
         Rot=    1.000000    0.000037   -0.000005    0.000011 Ang=   0.00 deg.
 Guess basis will be translated and rotated to current coordinates.
 JPrj=2 DoOrth=T DoCkMO=T.
 Generating alternative initial guess.
 ExpMin= 1.22D-01 ExpMax= 6.67D+03 ExpMxC= 2.28D+02 IAcc=2 IRadAn=         4 AccDes= 0.00D+00
 Harris functional with IExCor=  402 and IRadAn=       4 diagonalized for initial guess.
 HarFok:  IExCor=  402 AccDes= 0.00D+00 IRadAn=         4 IDoV= 1 UseB2=F ITyADJ=14
 ICtDFT=  3500011 ScaDFX=  1.000000  1.000000  1.000000  1.000000
 FoFCou: FMM=F IPFlag=           0 FMFlag=      100000 FMFlg1=           0
         NFxFlg=           0 DoJE=T BraDBF=F KetDBF=T FulRan=T
         wScrn=  0.000000 ICntrl=       500 IOpCl=  0 I1Cent=   200000004 NGrid=           0
         NMat0=    1 NMatS0=      1 NMatT0=    0 NMatD0=    1 NMtDS0=    0 NMtDT0=    0
 Petite list used in FoFCou.
 Harris En= -195.338218264020    
 Leave Link  401 at Thu Mar  5 23:13:57 2020, MaxMem= 24159191040 cpu:               6.6 elap:               0.3
 (Enter /opt/g16/l502.exe)
 Integral symmetry usage will be decided dynamically.
 Closed shell SCF:
 Using DIIS extrapolation, IDIIS=  1040.
 NGot= 24159191040 LenX= 24159160401 LenY= 24159146735
 Requested convergence on RMS density matrix=1.00D-08 within 128 cycles.
 Requested convergence on MAX density matrix=1.00D-06.
 Requested convergence on             energy=1.00D-06.
 No special actions if energy rises.
 Fock matrices will be formed incrementally for  20 cycles.
 Integral accuracy reduced to 1.0D-05 until final iterations.

 Cycle   1  Pass 0  IDiag  1:
 FoFJK:  IHMeth= 1 ICntrl=       0 DoSepK=F KAlg= 0 I1Cent=           0 FoldK=F
 IRaf= 980000000 NMat=       1 IRICut=       1 DoRegI=T DoRafI=F ISym2E= 0 IDoP0=0 IntGTp=1.
 FoFCou: FMM=F IPFlag=           0 FMFlag=      100000 FMFlg1=           0
         NFxFlg=           0 DoJE=F BraDBF=F KetDBF=F FulRan=T
         wScrn=  0.000000 ICntrl=         0 IOpCl=  0 I1Cent=           0 NGrid=           0
         NMat0=    1 NMatS0=      1 NMatT0=    0 NMatD0=    1 NMtDS0=    0 NMtDT0=    0
 Symmetry not used in FoFCou.
 E= -195.300182351020    
 DIIS: error= 1.37D-03 at cycle   1 NSaved=   1.
 NSaved= 1 IEnMin= 1 EnMin= -195.300182351020     IErMin= 1 ErrMin= 1.37D-03
 ErrMax= 1.37D-03  0.00D+00 EMaxC= 1.00D-01 BMatC= 2.74D-04 BMatP= 2.74D-04
 IDIUse=3 WtCom= 9.86D-01 WtEn= 1.37D-02
 Coeff-Com:  0.100D+01
 Coeff-En:   0.100D+01
 Coeff:      0.100D+01
 Gap=     0.683 Goal=   None    Shift=    0.000
 GapD=    0.683 DampG=2.000 DampE=1.000 DampFc=2.0000 IDamp=-1.
 RMSDP=2.64D-04 MaxDP=4.68D-03              OVMax= 6.39D-03

 Cycle   2  Pass 0  IDiag  1:
 RMSU=  2.64D-04    CP:  1.00D+00
 E= -195.300639100553     Delta-E=       -0.000456749533 Rises=F Damp=F
 DIIS: error= 2.25D-04 at cycle   2 NSaved=   2.
 NSaved= 2 IEnMin= 2 EnMin= -195.300639100553     IErMin= 2 ErrMin= 2.25D-04
 ErrMax= 2.25D-04  0.00D+00 EMaxC= 1.00D-01 BMatC= 7.50D-06 BMatP= 2.74D-04
 IDIUse=3 WtCom= 9.98D-01 WtEn= 2.25D-03
 Coeff-Com: -0.223D-01 0.102D+01
 Coeff-En:   0.000D+00 0.100D+01
 Coeff:     -0.223D-01 0.102D+01
 Gap=     0.241 Goal=   None    Shift=    0.000
 RMSDP=5.30D-05 MaxDP=1.09D-03 DE=-4.57D-04 OVMax= 2.39D-03

 Cycle   3  Pass 0  IDiag  1:
 RMSU=  5.09D-05    CP:  1.00D+00  1.06D+00
 E= -195.300629083479     Delta-E=        0.000010017073 Rises=F Damp=F
 DIIS: error= 4.61D-04 at cycle   3 NSaved=   3.
 NSaved= 3 IEnMin= 2 EnMin= -195.300639100553     IErMin= 2 ErrMin= 2.25D-04
 ErrMax= 4.61D-04  0.00D+00 EMaxC= 1.00D-01 BMatC= 1.75D-05 BMatP= 7.50D-06
 IDIUse=3 WtCom= 3.18D-01 WtEn= 6.82D-01
 Coeff-Com: -0.399D-01 0.645D+00 0.395D+00
 Coeff-En:   0.000D+00 0.678D+00 0.322D+00
 Coeff:     -0.127D-01 0.667D+00 0.345D+00
 Gap=     0.241 Goal=   None    Shift=    0.000
 RMSDP=3.39D-05 MaxDP=8.44D-04 DE= 1.00D-05 OVMax= 1.71D-03

 Cycle   4  Pass 0  IDiag  1:
[...]
 ! R2    R(1,3)                  1.0931         -DE/DX =    0.0                 !
 ! R3    R(1,4)                  1.3358         -DE/DX =    0.0                 !
 ! R4    R(4,5)                  1.0973         -DE/DX =    0.0                 !
 ! R5    R(4,6)                  1.51           -DE/DX =    0.0                 !
 ! R6    R(6,7)                  1.1051         -DE/DX =    0.0                 !
 ! R7    R(6,8)                  1.1051         -DE/DX =    0.0                 !
 ! R8    R(6,9)                  1.5099         -DE/DX =    0.0                 !
 ! R9    R(9,10)                 1.0974         -DE/DX =    0.0                 !
 ! R10   R(9,11)                 1.3358         -DE/DX =    0.0                 !
 ! R11   R(11,12)                1.0951         -DE/DX =    0.0                 !
 ! R12   R(11,13)                1.0931         -DE/DX =    0.0                 !
 ! A1    A(2,1,3)              116.9782         -DE/DX =    0.0                 !
 ! A2    A(2,1,4)              121.4832         -DE/DX =    0.0                 !
 ! A3    A(3,1,4)              121.5381         -DE/DX =    0.0                 !
 ! A4    A(1,4,5)              119.3411         -DE/DX =    0.0                 !
 ! A5    A(1,4,6)              125.1417         -DE/DX =    0.0                 !
 ! A6    A(5,4,6)              115.5104         -DE/DX =    0.0                 !
 ! A7    A(4,6,7)              108.9256         -DE/DX =    0.0                 !
 ! A8    A(4,6,8)              109.6738         -DE/DX =    0.0                 !
 ! A9    A(4,6,9)              112.3448         -DE/DX =    0.0                 !
 ! A10   A(7,6,8)              107.1675         -DE/DX =    0.0                 !
 ! A11   A(7,6,9)              109.6741         -DE/DX =    0.0                 !
 ! A12   A(8,6,9)              108.92           -DE/DX =    0.0                 !
 ! A13   A(6,9,10)             115.4997         -DE/DX =    0.0                 !
 ! A14   A(6,9,11)             125.1473         -DE/DX =    0.0                 !
 ! A15   A(10,9,11)            119.3467         -DE/DX =    0.0                 !
 ! A16   A(9,11,12)            121.4846         -DE/DX =    0.0                 !
 ! A17   A(9,11,13)            121.5318         -DE/DX =    0.0                 !
 ! A18   A(12,11,13)           116.983          -DE/DX =    0.0                 !
 ! D1    D(2,1,4,5)            179.6404         -DE/DX =    0.0                 !
 ! D2    D(2,1,4,6)              0.6304         -DE/DX =    0.0                 !
 ! D3    D(3,1,4,5)             -0.6476         -DE/DX =    0.0                 !
 ! D4    D(3,1,4,6)           -179.6576         -DE/DX =    0.0                 !
 ! D5    D(1,4,6,7)             -3.6247         -DE/DX =    0.0                 !
 ! D6    D(1,4,6,8)           -120.6234         -DE/DX =    0.0                 !
 ! D7    D(1,4,6,9)            118.0934         -DE/DX =    0.0                 !
 ! D8    D(5,4,6,7)            177.3315         -DE/DX =    0.0                 !
 ! D9    D(5,4,6,8)             60.3328         -DE/DX =    0.0                 !
 ! D10   D(5,4,6,9)            -60.9503         -DE/DX =    0.0                 !
 ! D11   D(4,6,9,10)           -60.9799         -DE/DX =    0.0                 !
 ! D12   D(4,6,9,11)           118.0922         -DE/DX =    0.0                 !
 ! D13   D(7,6,9,10)            60.3106         -DE/DX =    0.0                 !
 ! D14   D(7,6,9,11)          -120.6173         -DE/DX =    0.0                 !
 ! D15   D(8,6,9,10)           177.3062         -DE/DX =    0.0                 !
 ! D16   D(8,6,9,11)            -3.6217         -DE/DX =    0.0                 !
 ! D17   D(6,9,11,12)            0.6254         -DE/DX =    0.0                 !
 ! D18   D(6,9,11,13)         -179.6835         -DE/DX =    0.0                 !
 ! D19   D(10,9,11,12)         179.6645         -DE/DX =    0.0                 !
 ! D20   D(10,9,11,13)          -0.6443         -DE/DX =    0.0                 !
 --------------------------------------------------------------------------------
 GradGradGradGradGradGradGradGradGradGradGradGradGradGradGradGradGradGrad

 Leave Link  103 at Thu Mar  5 23:15:20 2020, MaxMem= 24159191040 cpu:               0.4 elap:               0.0
 (Enter /opt/g16/l9999.exe)

 ----------------------------------------------------------------------

 Electric dipole moment (input orientation):
 (Debye = 10**-18 statcoulomb cm , SI units = C m)
                  (au)            (Debye)         (10**-30 SI)
   Tot        0.406963D-01      0.103440D+00      0.345038D+00
   x          0.231664D-01      0.588832D-01      0.196413D+00
   y         -0.332332D-01     -0.844704D-01     -0.281763D+00
   z          0.388045D-02      0.986313D-02      0.328999D-01

 Dipole polarizability, Alpha (input orientation).
 (esu units = cm**3 , SI units = C**2 m**2 J**-1)
 Alpha(0;0):
               (au)            (10**-24 esu)      (10**-40 SI)
   iso        0.562931D+02      0.834178D+01      0.928148D+01
   aniso      0.456110D+02      0.675885D+01      0.752023D+01
   xx         0.685309D+02      0.101552D+02      0.112992D+02
   yx         0.208033D+02      0.308273D+01      0.343000D+01
   yy         0.553799D+02      0.820645D+01      0.913091D+01
   zx         0.875975D+01      0.129806D+01      0.144429D+01
   zy         0.667245D+01      0.988755D+00      0.110014D+01
   zz         0.449685D+02      0.666365D+01      0.741431D+01

 ----------------------------------------------------------------------

 Dipole orientation:
     6         -0.68790474         -0.66857378         -1.91105248
     1         -0.10354602         -2.23581226         -0.69253037
     1         -2.33167754         -0.98505258         -3.12121206
     6          0.54645924          1.53331776         -1.90985360
     1         -0.08967956          3.05551242         -3.16620429
     6          2.83636772          2.13167394         -0.31595617
     1          3.24024399          0.50337523          0.92764174
     1          2.42566560          3.76422875          0.91989605
     6          5.13504450          2.72481922         -1.89901809
     1          5.77842532          1.19795943         -3.14600727
     6          6.36953921          4.92662058         -1.90076080
     1          5.77850763          6.49803909         -0.69086775
     1          8.02044048          5.23848740         -3.10235816

 Electric dipole moment (dipole orientation):
 (Debye = 10**-18 statcoulomb cm , SI units = C m)
                  (au)            (Debye)         (10**-30 SI)
   Tot        0.406963D-01      0.103440D+00      0.345038D+00
   x          0.000000D+00      0.000000D+00      0.000000D+00
   y          0.000000D+00      0.000000D+00      0.000000D+00
   z          0.406963D-01      0.103440D+00      0.345038D+00

 Dipole polarizability, Alpha (dipole orientation).
 (esu units = cm**3 , SI units = C**2 m**2 J**-1)
 Alpha(0;0):
               (au)            (10**-24 esu)      (10**-40 SI)
   iso        0.562931D+02      0.834178D+01      0.928148D+01
   aniso      0.456110D+02      0.675885D+01      0.752023D+01
   xx         0.607141D+02      0.899691D+01      0.100104D+02
   yx         0.219947D+02      0.325928D+01      0.362644D+01
   yy         0.680478D+02      0.100836D+02      0.112196D+02
   zx         0.212881D-01      0.315457D-02      0.350993D-02
   zy         0.151367D-01      0.224302D-02      0.249570D-02
   zz         0.401174D+02      0.594479D+01      0.661447D+01

 ----------------------------------------------------------------------
 1\1\GINC-CU41\Freq\RB3LYP\CC-pVDZ\C5H8\QINGCHUN\05-Mar-2020\0\\#P Geom
 =AllCheck Guess=TCheck SCRF=Check GenChk RB3LYP/CC-pVDZ Freq\\6-31G\\0
 ,1\C,-0.9821550555,0.5329410787,-0.1781201077\H,-0.7493153534,-0.18682
 17716,-0.9699227371\H,-2.0302845891,0.6212211732,0.1192186363\C,-0.027
 3387948,1.2654471021,0.4016191432\H,-0.3009843061,1.9806037623,1.18764
 60335\C,1.44045678,1.2148005993,0.050813071\H,1.5998848874,0.431029012
 5,-0.7117428526\H,2.0263384683,0.9264652144,0.9423721156\C,1.953337650
 2,2.5379172118,-0.465188684\H,1.4745401434,2.9051998948,-1.3817262479\
 C,2.9072962594,3.2717050902,0.1143237877\H,3.4044327615,2.9414335276,1
 .0324754712\H,3.2305403986,4.2262737248,-0.3088473791\\Version=ES64L-G
 16RevA.03\State=1-A\HF=-195.3074931\RMSD=5.267e-09\RMSF=1.171e-05\Zero
 Point=0.1127717\Thermal=0.1188043\Dipole=0.0231664,-0.0332332,0.003880
 5\DipoleDeriv=-0.1000325,-0.0792163,-0.080047,-0.050315,-0.1163128,0.1
 562515,-0.0826054,0.1728729,-0.0880018,0.0345604,0.0465503,0.060344,0.
 0059125,0.0212526,-0.0982201,0.0251136,-0.1045944,0.0054831,-0.1028123
 ,-0.0238693,0.033445,0.012727,0.0880051,-0.0454528,0.0440396,-0.054755
 5,0.0723548,0.3109301,0.1194297,0.0002939,-0.0478683,-0.1101279,0.1463
 992,-0.0435863,0.1402162,-0.0159268,-0.0074605,0.0020837,0.0287298,0.0
 367332,0.0154595,-0.1132431,0.0404012,-0.0981249,-0.0096655,0.0172981,
 -0.0808888,-0.0157196,-0.0817024,0.0731281,-0.007892,-0.0219824,-0.012
 2742,0.1562784,0.013186,-0.0294601,0.0067449,-0.0213607,-0.1016875,-0.
 0807462,0.0699797,-0.0721647,-0.032552,-0.0903157,0.0000977,-0.0806157
 ,0.0032601,0.0345848,0.0233847,-0.0501341,0.0799376,-0.0653855,-0.0605
 483,0.1130864,0.1150361,0.2695778,0.2110078,-0.0562191,0.06779,-0.1134
 448,0.0344745,0.0442723,0.0011972,-0.0908236,-0.0292609,0.0046745,0.06
 01952,-0.0673691,0.0695873,-0.0506652,-0.1840874,0.0048293,0.1072229,-
 0.0222324,-0.1033854,-0.1292982,0.1263129,-0.134379,-0.0168763,0.05762
 21,-0.0135415,-0.0630017,0.0199771,0.039707,0.0874058,-0.0872016,0.052
 4071,-0.035985,0.0673877,-0.0602983,-0.0216088,-0.095448,-0.0563059,0.
 057435,-0.0207582,0.0747165,0.0464671\Polar=68.5309043,20.8032771,55.3
 799022,8.7597514,6.6724499,44.9685368\Quadrupole=-0.0324255,-0.1607057
 ,0.1931312,0.3632439,0.5203718,0.4411864\PG=C01 [X(C5H8)]\NImag=0\\0.7
 4488330,0.13748974,0.42819020,0.01839813,0.31033876,0.42323231,-0.0691
 0671,0.04105262,0.04941371,0.06465158,0.03787685,-0.16256464,-0.140276
 21,-0.03963938,0.16744214,0.04620143,-0.14064364,-0.18954066,-0.049249
 62,0.15745396,0.19607820,-0.31292653,0.02182140,0.07741862,-0.00255249
 ,-0.00184014,-0.00100571,0.33255417,0.02541128,-0.04618823,-0.01824474
 ,0.01696724,0.00072697,-0.00465721,-0.02161538,0.03915609,0.08126272,-
 0.01746697,-0.06757456,0.01848698,-0.00095436,-0.00263475,-0.08317063,
 0.02091072,0.06116037,-0.33769792,-0.18581825,-0.13698869,0.00750635,0
 .00585934,0.00552269,-0.01770504,-0.01832672,-0.01519516,0.66298406,-0
 .18696319,-0.21908590,-0.14110019,-0.01509887,-0.00763182,-0.01083674,
 0.00461338,0.00423136,0.00027333,0.14996217,0.46432163,-0.13801861,-0.
 14166136,-0.16896981,-0.01610737,-0.01461544,-0.00665888,0.00906095,0.
 00495164,0.00634639,0.05351016,0.29470034,0.44435576,0.00723300,-0.016
 49260,-0.01736745,-0.00214658,-0.00379847,-0.00123298,0.00097402,0.000
 81592,-0.00082351,-0.07096803,0.04432944,0.05176643,0.07465726,0.00597
 923,-0.00714903,-0.01460332,-0.00348706,0.00482019,-0.00640402,0.00063
 781,-0.00323704,0.00428863,0.04186927,-0.16135315,-0.13263886,-0.04393
 501,0.16432198,0.00569781,-0.01094545,-0.00630635,-0.00105226,-0.00646
 412,0.00531103,-0.00097981,0.00436359,-0.00292303,0.04893808,-0.132128
 18,-0.18653235,-0.05422815,0.15068868,0.19133386,-0.02839607,-0.002159
 99,0.00428184,0.00172524,0.00235324,0.00062419,0.00067051,-0.00243196,
 0.00038589,-0.20006022,0.00798244,0.03088642,-0.00640387,-0.00161516,-
 0.00001328,0.47660583,-0.01919707,0.00572940,0.00209389,-0.00033969,-0
 .00355014,0.00478239,-0.00339414,0.00521013,-0.00775413,0.01733624,-0.
 07492437,-0.00938071,0.01811636,0.00013686,-0.00494286,-0.01701025,0.5
 0032212,-0.01260467,-0.00093774,0.00772459,-0.00221526,0.00434716,-0.0
 0339119,-0.00098243,-0.00827096,0.00573431,0.03305148,-0.00741917,-0.0
 8755103,0.02175230,-0.00132933,-0.00312146,0.03989574,0.03394243,0.559
 35959,0.00193917,0.00114108,0.00077123,-0.00000167,-0.00081194,-0.0008
 9726,0.00041510,-0.00012894,-0.00018576,-0.00806665,0.02356788,0.02450
 875,-0.00566901,0.00001376,0.00134257,-0.04730326,0.02392456,0.0205501
 7,0.05678611,-0.00122937,0.00037123,0.00103198,0.00051154,0.00039329,0
 .00013877,-0.00005700,0.00008204,0.00030741,0.00066463,-0.00171015,-0.
 00206050,-0.00010427,0.00119857,-0.00035498,0.02731093,-0.17008168,-0.
 12410960,-0.02506849,0.18736913,-0.00160120,0.00077964,0.00065165,0.00
 048167,0.00037972,0.00050510,-0.00008343,0.00030935,0.00011070,0.00166
 361,-0.00680395,-0.00742270,0.00179071,-0.00033761,0.00131076,0.023566
 95,-0.12191637,-0.17029174,-0.02869917,0.13603243,0.18152244,-0.002963
 89,0.00174765,0.00237899,-0.00015940,0.00084794,-0.00079127,-0.0003799
 1,-0.00217255,0.00136807,-0.02010714,0.00498249,-0.02659824,0.00094615
 ,-0.00001341,0.00081481,-0.11399594,0.03676268,-0.10963374,0.00210370,
 -0.00146295,0.00388182,0.12841595,-0.00039078,0.00002319,-0.00000586,-
 0.00000870,0.00046806,-0.00024549,-0.00016792,-0.00024985,0.00047346,-
 0.00047488,-0.00014900,0.00032214,-0.00007616,0.00023681,0.00007328,0.
 03417118,-0.06040604,0.04776747,-0.01162406,0.00572428,-0.01680965,-0.
 03478042,0.06708740,0.00093129,0.00084950,0.00022617,0.00007124,0.0001
 9084,0.00004973,-0.00002682,0.00047569,-0.00026281,0.00378539,-0.00313
 838,0.00826987,-0.00073903,0.00000684,0.00046786,-0.10603754,0.0501662
 1,-0.21322284,-0.01050156,0.00564174,-0.01635254,0.11800956,-0.0588885
 2,0.23012950,-0.00274426,0.00099322,0.00167268,0.00003795,-0.00084369,
 0.00070897,-0.00093789,0.00145141,-0.00207507,-0.01932246,-0.03335313,
 0.01158269,0.00174874,0.00042707,-0.00078942,-0.08328268,-0.03896676,0
 .01181035,0.00012446,0.00014448,-0.00255186,0.00527970,0.01469999,-0.0
 0680052,0.52247287,0.00343922,-0.00009183,0.00030215,-0.00014189,0.000
 21450,0.00007867,0.00054638,0.00018534,0.00048560,-0.01509604,0.000694
 06,0.00156762,0.00197018,0.00081023,-0.00088819,-0.03034920,-0.1805616
 2,0.04560010,-0.00970365,-0.02178374,0.00847696,-0.00356154,-0.0104999
 0,0.00400389,0.22975421,0.52580220,-0.00182832,-0.00040564,-0.00016850
 ,0.00014565,-0.00015879,0.00034029,-0.00044572,0.00012116,-0.00001242,
 0.00626621,0.00605444,-0.00281652,-0.00048703,0.00049714,0.00064132,0.
 00776286,0.04325927,-0.09873764,-0.00865537,-0.02034966,0.00967047,0.0
 0894330,0.02608662,-0.01198632,0.26953390,-0.03729921,0.52345321,-0.00
 007734,0.00005293,-0.00040656,0.00001473,-0.00005353,0.00003820,-0.000
 00251,-0.00000383,-0.00000188,0.00180661,0.00054089,0.00033838,-0.0000
 6834,-0.00003213,0.00006624,0.00449738,-0.00478366,0.00826240,0.000288
 33,0.00010394,-0.00029849,0.00025409,-0.00233946,0.00059065,-0.0983983
 2,0.03411081,-0.10235894,0.09743745,-0.00068261,0.00009662,-0.00050868
 ,0.00001331,-0.00008817,0.00000292,-0.00005093,-0.00011836,0.00000031,
 0.00185063,0.00069837,-0.00042927,-0.00004857,-0.00001971,0.00005855,0
 .01065838,-0.00714498,0.02292845,0.00029999,0.00088986,-0.00073608,-0.
 00252949,-0.00418417,0.00242464,0.03612500,-0.08161776,0.08124480,-0.0
 3193422,0.08265224,0.00064461,-0.00006494,0.00016163,-0.00001111,0.000
 03458,-0.00002464,0.00005729,0.00006249,0.00000907,-0.00129679,-0.0003
 9174,0.00069482,0.00010474,0.00000595,-0.00022150,-0.00556552,0.001794
 78,-0.00675109,0.00029465,0.00068887,0.00047484,0.00044448,0.00202644,
 0.00077016,-0.10323851,0.07817676,-0.23882226,0.11754386,-0.08866651,0
 .25021486,-0.00003124,0.00015502,0.00040439,-0.00000572,0.00001854,0.0
 0001227,-0.00008195,-0.00001644,-0.00003916,0.00104985,-0.00075217,-0.
 00078346,-0.00008179,0.00011838,0.00012446,-0.00536371,-0.01207112,-0.
 00495917,-0.00012209,0.00049814,0.00101937,0.00038804,0.00162443,-0.00
 013764,-0.31595983,-0.19794069,-0.16832661,-0.00567685,-0.01025398,-0.
 00654038,0.49279368,-0.00144182,0.00062514,0.00075966,0.00015706,-0.00
 018863,0.00030268,-0.00041442,0.00015593,-0.00044689,0.00228858,-0.003
 77699,-0.00074048,-0.00082130,0.00021100,0.00053048,-0.02572915,-0.018
 27491,-0.01027755,-0.00146158,-0.00251954,0.00087440,-0.00029071,0.001
 53546,-0.00196045,-0.19882184,-0.22971167,-0.09487756,0.00766028,0.008
 17415,0.00763500,0.26360631,0.58726907,0.00104468,0.00011510,0.0004687
 2,0.00002755,0.00013556,-0.00007949,0.00020344,-0.00016525,0.00022712,
 0.00065583,0.00198499,-0.00027713,-0.00052147,-0.00020521,0.00005155,0
 .00625627,0.00622438,0.00870073,0.00105504,0.00276064,-0.00007260,0.00
 127397,0.00041669,0.00103912,-0.16726398,-0.09398789,-0.18010265,-0.02
 129047,-0.01498784,-0.00871796,0.26509309,-0.08566700,0.51626829,-0.00
 015340,0.00008740,0.00011550,0.00002276,-0.00002654,0.00003557,-0.0000
 3708,0.00005960,-0.00011364,-0.00015615,-0.00085636,-0.00001362,-0.000
 09261,-0.00001420,0.00002327,-0.00310484,0.00443759,0.00261812,0.00069
 430,0.00063758,0.00017557,0.00020856,-0.00071014,0.00061615,-0.0056972
 2,0.00773641,-0.02082205,0.00297542,-0.00629792,-0.00572970,-0.0998257
 8,0.03084170,-0.10975145,0.10002205,0.00023956,-0.00010055,0.00001039,
 -0.00001206,0.00003985,-0.00002716,0.00004895,-0.00001173,0.00006750,-
 0.00005116,0.00050463,0.00015942,0.00005570,0.00001664,-0.00002278,0.0
 0230530,-0.00035616,-0.00381906,-0.00038945,-0.00044923,0.00003951,0.0
 0033955,0.00005938,0.00043807,-0.00891921,0.00810509,-0.01368397,-0.00
 601619,0.00145209,0.00116189,0.03339686,-0.07788868,0.08025818,-0.0321
 1227,0.07260950,0.00024331,-0.00007853,-0.00001984,-0.00000738,0.00003
 213,-0.00000790,0.00004577,0.00003036,0.00003437,0.00028271,0.00051988
 ,0.00024465,-0.00000028,0.00002674,-0.00002214,0.00440834,-0.00103610,
 -0.00175423,-0.00038138,-0.00051035,0.00011281,-0.00028249,-0.00090462
 ,0.00062865,-0.00668740,0.00739074,-0.00919178,-0.00578908,0.00094084,
 0.00355786,-0.11167353,0.07704739,-0.24349863,0.12555195,-0.08388936,0
 .25553698,0.00004189,-0.00007021,-0.00009240,0.00001396,0.00005778,0.0
 0003351,0.00000960,-0.00000962,0.00010114,0.00073674,0.00104503,-0.000
 13250,-0.00012894,0.00005145,0.00005568,0.00441163,-0.00481473,-0.0075
 4529,-0.00118849,-0.00194914,0.00065446,0.00001009,0.00007692,0.000238
 82,-0.00332106,-0.02076420,0.01027211,-0.00305065,0.00285040,0.0032923
 8,-0.06708260,-0.07557310,0.02321751,0.00514399,0.01111441,-0.00571056
 ,0.06440385,-0.00053103,0.00014441,0.00020216,0.00002587,-0.00008160,0
 .00005487,-0.00012799,0.00005735,-0.00018462,-0.00006382,-0.00181869,-
 0.00017455,-0.00001123,0.00000664,0.00003198,-0.00548574,0.00390137,0.
 00157779,0.00024084,0.00051595,-0.00028836,0.00013077,0.00035437,-0.00
 021008,-0.00269074,-0.01154490,0.00951141,0.00269418,-0.00079019,-0.00
 246357,-0.07838327,-0.26561035,0.10311765,-0.00378284,-0.00398084,0.00
 043089,0.08798501,0.27884649,-0.00037117,0.00012125,0.00011464,0.00001
 618,-0.00010504,0.00005316,-0.00009153,0.00011318,-0.00021476,-0.00019
 551,-0.00171464,0.00031694,-0.00001429,0.00000435,0.00001044,-0.006452
 17,0.00276682,0.00330201,0.00079808,0.00078326,-0.00021918,0.00019074,
 -0.00031195,0.00024346,-0.00590184,-0.01390721,0.00773280,0.00330569,-
 0.00227214,-0.00134579,0.02580635,0.10682033,-0.09400707,0.00729432,0.
 01930737,-0.00562080,-0.02438486,-0.11160559,0.08963415\\0.00000394,0.
 00000138,0.00001604,-0.00000152,0.00000257,-0.00000616,-0.00000966,0.0
 0000190,-0.00001245,0.00000529,-0.00002077,0.00002916,-0.00001348,0.00
 000707,-0.00000689,-0.00000560,0.00000572,-0.00004481,0.00000122,0.000
 00399,0.00000326,0.00000762,0.00000391,0.00000699,0.00001889,0.0000008
 1,0.00002026,-0.00000363,-0.00000644,-0.00000693,-0.00000695,0.0000018
 6,-0.00000069,0.00000424,-0.00000294,0.00000284,-0.00000036,0.00000095
 ,-0.00000062\\\@


 FOR THE NATURE OF THE CHEMICAL BOND
 IS THE PROBLEM AT THE HEART OF ALL CHEMISTRY.

                     -- BRYCE CRAWFORD, JR., 1953
 Job cpu time:       0 days  0 hours  7 minutes  1.6 seconds.
 Elapsed time:       0 days  0 hours  0 minutes 18.6 seconds.
 File lengths (MBytes):  RWF=     22 Int=      0 D2E=      0 Chk=      2 Scr=      1
 Normal termination of Gaussian 16 at Thu Mar  5 23:15:20 2020.
