Title section
Stability RHF                                                         6-31G
Number of atoms                            I               13
Info1-9                                    I   N=           9
          24          23           0           0           0         110
           7           1           2
Full Title                                 C   N=           2
Title section
Route                                      C   N=          11
#p int=(nobasistransform) nosymm pop=full punch=gamessinput
gfprint uhf/6-31g 6D 10F guess=mix SCF=(xqc, maxcycle=500) s
table=opt
Charge                                     I                0
Multiplicity                               I                1
Number of electrons                        I               38
Number of alpha electrons                  I               19
Number of beta electrons                   I               19
Number of basis functions                  I               61
Number of independent functions            I               61
Number of point charges in /Mol/           I                0
Number of translation vectors              I                0
Atomic numbers                             I   N=          13
           6           1           1           6           1           6
           1           1           6           1           6           1
           1
Nuclear charges                            R   N=          13
  6.00000000E+00  1.00000000E+00  1.00000000E+00  6.00000000E+00  1.00000000E+00
  6.00000000E+00  1.00000000E+00  1.00000000E+00  6.00000000E+00  1.00000000E+00
  6.00000000E+00  1.00000000E+00  1.00000000E+00
Current cartesian coordinates              R   N=          39
  0.00000000E+00  0.00000000E+00  0.00000000E+00  0.00000000E+00  0.00000000E+00
  2.06942179E+00  1.84080346E+00  0.00000000E+00 -9.37054449E-01 -4.30533268E+00
 -2.07016095E-02 -2.63659818E+00 -4.22789813E+00 -8.98198165E-03 -4.70880257E+00
 -9.54389982E+00  5.46227226E-03 -3.72621413E-01 -9.38360991E+00 -1.00069842E-01
  1.70684552E+00 -1.05882716E+01 -1.69169152E+00 -9.97280229E-01 -1.25171970E+01
  4.65110517E+00 -1.83713132E+00 -1.17020881E+01  6.45977672E+00 -1.23337362E+00
 -1.68205189E+01  4.63488661E+00 -4.47698191E+00 -1.76864189E+01  2.86930807E+00
 -5.12154748E+00 -1.78014811E+01  6.38880899E+00 -4.95451880E+00
Number of symbols in /Mol/                 I                0
Force Field                                I                0
Atom Types                                 C   N=          13



Int Atom Types                             I   N=          13
           0           0           0           0           0           0
           0           0           0           0           0           0
           0
MM charges                                 R   N=          13
  0.00000000E+00  0.00000000E+00  0.00000000E+00  0.00000000E+00  0.00000000E+00
  0.00000000E+00  0.00000000E+00  0.00000000E+00  0.00000000E+00  0.00000000E+00
  0.00000000E+00  0.00000000E+00  0.00000000E+00
Integer atomic weights                     I   N=          13
          12           1           1          12           1          12
           1           1          12           1          12           1
           1
Real atomic weights                        R   N=          13
  1.20000000E+01  1.00782504E+00  1.00782504E+00  1.20000000E+01  1.00782504E+00
  1.20000000E+01  1.00782504E+00  1.00782504E+00  1.20000000E+01  1.00782504E+00
  1.20000000E+01  1.00782504E+00  1.00782504E+00
Atom fragment info                         I   N=          13
           0           0           0           0           0           0
           0           0           0           0           0           0
           0
Atom residue num                           I   N=          13
           0           0           0           0           0           0
           0           0           0           0           0           0
           0
Nuclear spins                              I   N=          13
           0           1           1           0           1           0
           1           1           0           1           0           1
           1
Nuclear ZEff                               R   N=          13
 -3.60000000E+00 -1.00000000E+00 -1.00000000E+00 -3.60000000E+00 -1.00000000E+00
 -3.60000000E+00 -1.00000000E+00 -1.00000000E+00 -3.60000000E+00 -1.00000000E+00
 -3.60000000E+00 -1.00000000E+00 -1.00000000E+00
Nuclear ZNuc                               R   N=          13
  6.00000000E+00  1.00000000E+00  1.00000000E+00  6.00000000E+00  1.00000000E+00
  6.00000000E+00  1.00000000E+00  1.00000000E+00  6.00000000E+00  1.00000000E+00
  6.00000000E+00  1.00000000E+00  1.00000000E+00
Nuclear QMom                               R   N=          13
  0.00000000E+00  0.00000000E+00  0.00000000E+00  0.00000000E+00  0.00000000E+00
  0.00000000E+00  0.00000000E+00  0.00000000E+00  0.00000000E+00  0.00000000E+00
  0.00000000E+00  0.00000000E+00  0.00000000E+00
Nuclear GFac                               R   N=          13
  0.00000000E+00  2.79284600E+00  2.79284600E+00  0.00000000E+00  2.79284600E+00
  0.00000000E+00  2.79284600E+00  2.79284600E+00  0.00000000E+00  2.79284600E+00
  0.00000000E+00  2.79284600E+00  2.79284600E+00
MicOpt                                     I   N=          13
          -1          -1          -1          -1          -1          -1
          -1          -1          -1          -1          -1          -1
          -1
Number of residues                         I                0
Number of secondary structures             I                0
Number of contracted shells                I               31
Number of primitive shells                 I               82
Pure/Cartesian d shells                    I                1
Pure/Cartesian f shells                    I                1
Highest angular momentum                   I                1
Largest degree of contraction              I                6
Shell types                                I   N=          31
           0          -1          -1           0           0           0
           0           0          -1          -1           0           0
           0          -1          -1           0           0           0
           0           0          -1          -1           0           0
           0          -1          -1           0           0           0
           0
Number of primitives per shell             I   N=          31
           6           3           1           3           1           3
           1           6           3           1           3           1
           6           3           1           3           1           3
           1           6           3           1           3           1
           6           3           1           3           1           3
           1
Shell to atom map                          I   N=          31
           1           1           1           2           2           3
           3           4           4           4           5           5
           6           6           6           7           7           8
           8           9           9           9          10          10
          11          11          11          12          12          13
          13
Primitive exponents                        R   N=          82
  3.04752488E+03  4.57369518E+02  1.03948685E+02  2.92101553E+01  9.28666296E+00
  3.16392696E+00  7.86827235E+00  1.88128854E+00  5.44249258E-01  1.68714478E-01
  1.87311370E+01  2.82539436E+00  6.40121692E-01  1.61277759E-01  1.87311370E+01
  2.82539436E+00  6.40121692E-01  1.61277759E-01  3.04752488E+03  4.57369518E+02
  1.03948685E+02  2.92101553E+01  9.28666296E+00  3.16392696E+00  7.86827235E+00
  1.88128854E+00  5.44249258E-01  1.68714478E-01  1.87311370E+01  2.82539436E+00
  6.40121692E-01  1.61277759E-01  3.04752488E+03  4.57369518E+02  1.03948685E+02
  2.92101553E+01  9.28666296E+00  3.16392696E+00  7.86827235E+00  1.88128854E+00
  5.44249258E-01  1.68714478E-01  1.87311370E+01  2.82539436E+00  6.40121692E-01
  1.61277759E-01  1.87311370E+01  2.82539436E+00  6.40121692E-01  1.61277759E-01
  3.04752488E+03  4.57369518E+02  1.03948685E+02  2.92101553E+01  9.28666296E+00
  3.16392696E+00  7.86827235E+00  1.88128854E+00  5.44249258E-01  1.68714478E-01
  1.87311370E+01  2.82539436E+00  6.40121692E-01  1.61277759E-01  3.04752488E+03
  4.57369518E+02  1.03948685E+02  2.92101553E+01  9.28666296E+00  3.16392696E+00
  7.86827235E+00  1.88128854E+00  5.44249258E-01  1.68714478E-01  1.87311370E+01
  2.82539436E+00  6.40121692E-01  1.61277759E-01  1.87311370E+01  2.82539436E+00
  6.40121692E-01  1.61277759E-01
Contraction coefficients                   R   N=          82
  1.83473713E-03  1.40373228E-02  6.88426223E-02  2.32184443E-01  4.67941348E-01
  3.62311985E-01 -1.19332420E-01 -1.60854152E-01  1.14345644E+00  1.00000000E+00
  3.34946043E-02  2.34726953E-01  8.13757326E-01  1.00000000E+00  3.34946043E-02
  2.34726953E-01  8.13757326E-01  1.00000000E+00  1.83473713E-03  1.40373228E-02
  6.88426223E-02  2.32184443E-01  4.67941348E-01  3.62311985E-01 -1.19332420E-01
 -1.60854152E-01  1.14345644E+00  1.00000000E+00  3.34946043E-02  2.34726953E-01
  8.13757326E-01  1.00000000E+00  1.83473713E-03  1.40373228E-02  6.88426223E-02
  2.32184443E-01  4.67941348E-01  3.62311985E-01 -1.19332420E-01 -1.60854152E-01
  1.14345644E+00  1.00000000E+00  3.34946043E-02  2.34726953E-01  8.13757326E-01
  1.00000000E+00  3.34946043E-02  2.34726953E-01  8.13757326E-01  1.00000000E+00
  1.83473713E-03  1.40373228E-02  6.88426223E-02  2.32184443E-01  4.67941348E-01
  3.62311985E-01 -1.19332420E-01 -1.60854152E-01  1.14345644E+00  1.00000000E+00
  3.34946043E-02  2.34726953E-01  8.13757326E-01  1.00000000E+00  1.83473713E-03
  1.40373228E-02  6.88426223E-02  2.32184443E-01  4.67941348E-01  3.62311985E-01
 -1.19332420E-01 -1.60854152E-01  1.14345644E+00  1.00000000E+00  3.34946043E-02
  2.34726953E-01  8.13757326E-01  1.00000000E+00  3.34946043E-02  2.34726953E-01
  8.13757326E-01  1.00000000E+00
P(S=P) Contraction coefficients            R   N=          82
  0.00000000E+00  0.00000000E+00  0.00000000E+00  0.00000000E+00  0.00000000E+00
  0.00000000E+00  6.89990666E-02  3.16423961E-01  7.44308291E-01  1.00000000E+00
  0.00000000E+00  0.00000000E+00  0.00000000E+00  0.00000000E+00  0.00000000E+00
  0.00000000E+00  0.00000000E+00  0.00000000E+00  0.00000000E+00  0.00000000E+00
  0.00000000E+00  0.00000000E+00  0.00000000E+00  0.00000000E+00  6.89990666E-02
  3.16423961E-01  7.44308291E-01  1.00000000E+00  0.00000000E+00  0.00000000E+00
  0.00000000E+00  0.00000000E+00  0.00000000E+00  0.00000000E+00  0.00000000E+00
  0.00000000E+00  0.00000000E+00  0.00000000E+00  6.89990666E-02  3.16423961E-01
  7.44308291E-01  1.00000000E+00  0.00000000E+00  0.00000000E+00  0.00000000E+00
  0.00000000E+00  0.00000000E+00  0.00000000E+00  0.00000000E+00  0.00000000E+00
  0.00000000E+00  0.00000000E+00  0.00000000E+00  0.00000000E+00  0.00000000E+00
  0.00000000E+00  6.89990666E-02  3.16423961E-01  7.44308291E-01  1.00000000E+00
  0.00000000E+00  0.00000000E+00  0.00000000E+00  0.00000000E+00  0.00000000E+00
  0.00000000E+00  0.00000000E+00  0.00000000E+00  0.00000000E+00  0.00000000E+00
  6.89990666E-02  3.16423961E-01  7.44308291E-01  1.00000000E+00  0.00000000E+00
  0.00000000E+00  0.00000000E+00  0.00000000E+00  0.00000000E+00  0.00000000E+00
  0.00000000E+00  0.00000000E+00
Coordinates of each shell                  R   N=          93
  0.00000000E+00  0.00000000E+00  0.00000000E+00  0.00000000E+00  0.00000000E+00
  0.00000000E+00  0.00000000E+00  0.00000000E+00  0.00000000E+00  0.00000000E+00
  0.00000000E+00  2.06942179E+00  0.00000000E+00  0.00000000E+00  2.06942179E+00
  1.84080346E+00  0.00000000E+00 -9.37054449E-01  1.84080346E+00  0.00000000E+00
 -9.37054449E-01 -4.30533268E+00 -2.07016095E-02 -2.63659818E+00 -4.30533268E+00
 -2.07016095E-02 -2.63659818E+00 -4.30533268E+00 -2.07016095E-02 -2.63659818E+00
 -4.22789813E+00 -8.98198165E-03 -4.70880257E+00 -4.22789813E+00 -8.98198165E-03
 -4.70880257E+00 -9.54389982E+00  5.46227226E-03 -3.72621413E-01 -9.54389982E+00
  5.46227226E-03 -3.72621413E-01 -9.54389982E+00  5.46227226E-03 -3.72621413E-01
 -9.38360991E+00 -1.00069842E-01  1.70684552E+00 -9.38360991E+00 -1.00069842E-01
  1.70684552E+00 -1.05882716E+01 -1.69169152E+00 -9.97280229E-01 -1.05882716E+01
 -1.69169152E+00 -9.97280229E-01 -1.25171970E+01  4.65110517E+00 -1.83713132E+00
 -1.25171970E+01  4.65110517E+00 -1.83713132E+00 -1.25171970E+01  4.65110517E+00
 -1.83713132E+00 -1.17020881E+01  6.45977672E+00 -1.23337362E+00 -1.17020881E+01
  6.45977672E+00 -1.23337362E+00 -1.68205189E+01  4.63488661E+00 -4.47698191E+00
 -1.68205189E+01  4.63488661E+00 -4.47698191E+00 -1.68205189E+01  4.63488661E+00
 -4.47698191E+00 -1.76864189E+01  2.86930807E+00 -5.12154748E+00 -1.76864189E+01
  2.86930807E+00 -5.12154748E+00 -1.78014811E+01  6.38880899E+00 -4.95451880E+00
 -1.78014811E+01  6.38880899E+00 -4.95451880E+00
Num ILSW                                   I              100
ILSW                                       I   N=         100
           0           1           0           0           2           1
           0           0           0           0           0          -1
           5           0           0           1           0           0
           0           0           0           0           0           0
           1           1           0           0           0           0
           0           0      100000           0          -1           0
           0           0           0           0           0           0
           0           0           0           1           0           0
           0 -2000000000           1           0           0           0
           0           0           4          52           0           0
           0           0           0           0           0           0
           0           0           0          13           0           1
           0           0           0           0           0           0
           0           0           0           0           0           0
           0           0           0           0           0           0
           0           0           0           0           0           0
           0           0           0           0
Num RLSW                                   I               52
RLSW                                       R   N=          52
  1.00000000E+00  1.00000000E+00  1.00000000E+00  1.00000000E+00  1.00000000E+00
  0.00000000E+00  0.00000000E+00  1.00000000E+00  0.00000000E+00  0.00000000E+00
  0.00000000E+00  0.00000000E+00  1.00000000E+00  0.00000000E+00  0.00000000E+00
  0.00000000E+00  0.00000000E+00  1.00000000E+00  0.00000000E+00  0.00000000E+00
  0.00000000E+00  0.00000000E+00  1.00000000E+00  0.00000000E+00  0.00000000E+00
  0.00000000E+00  0.00000000E+00  1.00000000E+00  0.00000000E+00  0.00000000E+00
  0.00000000E+00  0.00000000E+00  1.00000000E+00  0.00000000E+00  0.00000000E+00
  0.00000000E+00  0.00000000E+00  0.00000000E+00  1.00000000E+00  1.00000000E+00
  0.00000000E+00  1.00000000E+00  0.00000000E+00  0.00000000E+00  0.00000000E+00
  0.00000000E+00  0.00000000E+00  0.00000000E+00  0.00000000E+00  0.00000000E+00
  0.00000000E+00  0.00000000E+00
MxBond                                     I                2
NBond                                      I   N=          13
           2           1           1           1           1           2
           1           1           1           1           2           1
           1
IBond                                      I   N=          26
           2           3           1           0           1           0
           5           0           4           0           7           8
           6           0           6           0          10           0
           9           0          12          13          11           0
          11           0
RBond                                      R   N=          26
  1.00000000E+00  1.00000000E+00  1.00000000E+00  0.00000000E+00  1.00000000E+00
  0.00000000E+00  1.00000000E+00  0.00000000E+00  1.00000000E+00  0.00000000E+00
  1.00000000E+00  1.00000000E+00  1.00000000E+00  0.00000000E+00  1.00000000E+00
  0.00000000E+00  1.00000000E+00  0.00000000E+00  1.00000000E+00  0.00000000E+00
  1.00000000E+00  1.00000000E+00  1.00000000E+00  0.00000000E+00  1.00000000E+00
  0.00000000E+00
Virial Ratio                               R      2.000125129625042E+00
SCF Energy                                 R     -1.932150246058991E+02
Total Energy                               R     -1.932150246058991E+02
S**2                                       R      4.425297527161213E+00
S**2 after annihilation                    R      1.452552563817638E+01
RMS Density                                R      8.867547350009318E-09
Job Status                                 I                1
Nuclear derivative order                   I                0
External E-field                           R   N=          35
  0.00000000E+00  0.00000000E+00  0.00000000E+00  0.00000000E+00  0.00000000E+00
  0.00000000E+00  0.00000000E+00  0.00000000E+00  0.00000000E+00  0.00000000E+00
  0.00000000E+00  0.00000000E+00  0.00000000E+00  0.00000000E+00  0.00000000E+00
  0.00000000E+00  0.00000000E+00  0.00000000E+00  0.00000000E+00  0.00000000E+00
  0.00000000E+00  0.00000000E+00  0.00000000E+00  0.00000000E+00  0.00000000E+00
  0.00000000E+00  0.00000000E+00  0.00000000E+00  0.00000000E+00  0.00000000E+00
  0.00000000E+00  0.00000000E+00  0.00000000E+00  0.00000000E+00  0.00000000E+00
IOpCl                                      I                0
IROHF                                      I                0
Alpha Orbital Energies                     R   N=          61
 -1.12969433E+01 -1.12739698E+01 -1.12705200E+01 -1.12677496E+01 -1.12199723E+01
 -9.46950400E-01 -8.73123870E-01 -8.61093703E-01 -7.76314497E-01 -7.71834562E-01
 -5.87699493E-01 -5.49165616E-01 -5.43789309E-01 -4.76853122E-01 -4.64877346E-01
 -4.11769142E-01 -4.09053511E-01 -3.97731469E-01 -3.89829927E-01  8.00891606E-02
  1.09789466E-01  1.54830925E-01  1.66427885E-01  1.76192981E-01  1.77744235E-01
  2.67735948E-01  2.76950643E-01  2.88699596E-01  3.05700269E-01  3.10642573E-01
  3.22822558E-01  3.30465335E-01  3.60708771E-01  6.75276148E-01  6.97356112E-01
  7.21373983E-01  7.28002098E-01  7.55082857E-01  7.66598183E-01  7.88877219E-01
  8.32872909E-01  8.60222564E-01  8.69564281E-01  8.80616305E-01  8.91632903E-01
  9.10012443E-01  9.18535237E-01  9.57495681E-01  9.70865292E-01  1.05319379E+00
  1.11585953E+00  1.14735237E+00  1.17749395E+00  1.17934921E+00  1.18517839E+00
  1.19181837E+00  1.21129095E+00  1.21630933E+00  1.24234380E+00  1.24524030E+00
  1.26123721E+00
Alpha MO coefficients                      R   N=        3721
  4.56262469E-04 -4.36706891E-04  2.26772942E-04  4.02942280E-06  1.83306071E-04
  5.84156120E-04 -4.51475185E-04  2.82346632E-06 -4.72970570E-04  3.04303909E-05
  1.98929223E-04 -3.59189414E-06  4.77117235E-06  9.96514223E-01  2.14587201E-02
  1.31818234E-04  4.03030168E-05 -7.27104442E-04 -8.78840720E-03 -2.98775391E-04
  3.37022423E-06  8.53919248E-04 -2.30156369E-04  2.99680245E-03 -1.30176580E-04
 -3.70391277E-04 -2.34034631E-04 -1.67085318E-05  1.22642207E-04  5.26574185E-04
  3.87898465E-04 -3.79185584E-05 -1.66972804E-04 -1.47051966E-05 -8.40049453E-06
 -2.73617448E-05 -1.38320755E-05  1.34810132E-03  3.72987545E-05  1.50353596E-05
 -3.82805334E-07 -3.85044419E-06 -2.54731179E-05 -3.65377682E-05 -1.98956957E-05
  9.52830946E-06  1.70543254E-06  2.34133870E-05  4.89521124E-06  3.19662110E-06
  1.75389209E-07 -5.21073530E-07  1.52872621E-06 -7.09803667E-06 -5.26811741E-06
  2.82708723E-06 -7.45137656E-06  2.95960497E-07  1.03765037E-06  6.74128922E-08
 -1.81719634E-06  3.65850661E-06  4.37638334E-06 -1.65476813E-06 -1.25382628E-06
 -5.98222502E-07 -8.67738134E-06  9.73935074E-06  3.78263200E-06  3.38690320E-06
  2.14022320E-07  5.03507605E-07  7.73101684E-08 -1.83499106E-06 -1.34961938E-03
 -2.07986375E-05 -1.01568775E-05  1.09533864E-05 -2.80463584E-06 -1.68693627E-06
  1.37340238E-05 -2.82200374E-05  2.70044389E-05  2.32955784E-06  1.53205584E-05
 -1.29914925E-04 -3.69466851E-04  1.15247589E-04 -2.26890513E-04  7.36311850E-05
  5.25358093E-04 -2.40214715E-04  3.41424259E-04 -7.74382869E-05 -2.73486578E-05
 -1.38863674E-05 -1.46597004E-05 -8.43694784E-06  9.96514195E-01  2.14587565E-02
  2.26278693E-04  6.90960924E-04  1.38004820E-04 -8.78824717E-03 -1.32683159E-04
 -8.83261153E-04 -1.44195699E-04 -2.30232407E-04  2.99672577E-03  4.56738353E-04
 -4.36697606E-04 -2.43791909E-04 -3.85963649E-05 -1.55320757E-04  5.84173049E-04
  5.35895827E-04  1.69725556E-04  3.33881774E-04  3.04364735E-05  1.98968850E-04
 -3.62144130E-06  4.68141672E-06 -5.09921935E-05 -1.50289552E-05 -3.22414801E-05
 -1.58250384E-06  3.52714940E-05  6.09000871E-05  6.71494530E-05  3.19910786E-06
 -2.03983781E-04  1.18982640E-05  1.15047764E-04 -1.90192506E-05 -1.22422000E-04
  1.28953558E-04 -3.64719559E-04  2.75920420E-04  6.17068594E-06 -1.69335840E-04
  3.73931636E-04 -5.12792596E-04 -3.70330703E-05  2.56059907E-04  3.47853512E-05
  1.19421851E-04  9.96421543E-01  2.27007057E-02 -3.40232043E-04 -6.93721908E-04
  5.59913904E-04 -1.12916290E-02  4.94394618E-04  1.00786544E-03 -8.13514128E-04
 -1.55932308E-04  3.06701324E-03 -1.55909842E-04  3.06686134E-03  1.29035626E-04
 -3.64813067E-04 -1.31673380E-04  2.87888587E-04 -6.81084979E-05  3.74175429E-04
  2.56329752E-04 -4.86312996E-04  1.66354142E-04  3.47520098E-05  1.19234938E-04
 -5.10256760E-05 -1.50438084E-05  8.47114584E-06 -4.68971450E-05  3.83724323E-06
  6.09373556E-05  3.69731851E-05  2.09026834E-04  3.27418493E-05  1.18973655E-05
  1.15047196E-04 -1.90268834E-05 -1.22410301E-04 -3.20953988E-03 -7.32267694E-05
 -2.13790321E-06 -2.65491544E-07 -2.07699273E-06  3.61634501E-05 -1.32700548E-06
  2.11450040E-07  3.17093218E-06  5.29273656E-07 -1.10382509E-05  8.54897105E-07
 -7.37111033E-06 -1.68998097E-06  2.69406544E-06  9.54726699E-07  1.35082045E-06
  2.34161868E-06 -4.50910806E-06  4.26357181E-06 -3.02455939E-06 -1.30942141E-05
 -2.54656095E-07 -5.84053944E-06  4.14895137E-05 -3.73794373E-06 -2.13196058E-05
 -1.44972305E-06 -1.96055170E-05  2.89552659E-05  2.95583215E-05  9.04645273E-05
  3.76872571E-05 -1.11032229E-05 -3.51723855E-05  7.18487539E-06  4.61503044E-05
 -4.51625759E-04 -4.79567967E-04  2.80349740E-04  6.13600104E-05  1.70692373E-04
  5.47936948E-04 -4.61343367E-04  1.50161675E-05 -2.83776986E-04  5.31289708E-05
  1.21031694E-04  9.96358753E-01  2.26387921E-02 -6.62351162E-04  5.80190656E-06
 -3.89755022E-04 -1.06922354E-02  7.09268719E-04 -8.83337687E-06  4.20808785E-04
 -2.67903335E-04  2.81837975E-03 -2.74807159E-04  2.83677418E-03  9.96358755E-01
  2.26387904E-02  6.60063706E-04 -1.00350871E-05  3.93671920E-04 -1.06922692E-02
 -7.09710273E-04  7.83777646E-06 -4.20512019E-04 -2.67889671E-04  2.81847232E-03
 -2.74807656E-04  2.83677118E-03 -4.51158726E-04 -4.79564430E-04 -2.48653061E-04
  3.33056149E-06 -2.22814125E-04  5.47944527E-04  4.70568131E-04  3.91157665E-06
  2.68430834E-04  5.31021847E-05  1.20924179E-04  4.17278263E-05 -3.75464531E-06
  2.32125216E-05  5.58514232E-06  1.61328368E-05  2.91223351E-05  9.25469140E-06
 -1.10830794E-05 -1.01028221E-04  7.11074944E-06  4.59270687E-05 -1.10551131E-05
 -3.48760284E-05 -4.59690870E-06 -3.95504978E-07  8.16044739E-07 -1.03009539E-06
 -1.18467996E-06 -9.78593249E-07 -2.23860380E-06  1.33052123E-05  3.04466624E-06
  8.64942245E-08 -5.05979581E-06  3.20912771E-03  7.26162730E-05 -1.93889379E-06
  6.86520615E-07 -7.45125516E-07 -3.27184709E-05  4.34380642E-06 -3.43806042E-06
  2.09954827E-06 -1.19670228E-06  7.11989015E-06 -9.15969560E-07  1.09045463E-05
 -2.49169699E-02  5.06597605E-02  1.71150320E-02  2.80089774E-05  1.03670091E-02
  4.61722958E-02  7.49644043E-03 -1.23665257E-05  4.67839145E-03  2.58003923E-02
  1.06897234E-02  2.57056638E-02  1.06389320E-02 -7.78533349E-03  1.68419676E-02
  5.93813517E-04 -4.50647041E-04 -1.47598676E-02  9.71730272E-03  3.54497620E-03
 -3.36154229E-05 -7.72547740E-03  1.66665690E-02  1.13805549E-02 -1.78348010E-01
  3.63152244E-01 -6.17856179E-02 -1.25998255E-01  1.01696032E-01  3.28445651E-01
 -2.71934338E-02 -5.54609833E-02  4.47578203E-02  1.91967581E-01  8.03877721E-02
  1.91954365E-01  8.03839107E-02 -7.78890307E-03  1.68497486E-02  5.50339539E-03
  1.28791406E-02  4.73593962E-03  9.72162129E-03  5.75664019E-04  8.42866331E-03
  9.48794096E-04  1.66735604E-02  1.13865719E-02 -2.49437283E-02  5.07143776E-02
 -1.71097374E-02  3.13484585E-05 -1.04174116E-02  4.62213988E-02 -7.56492509E-03
 -1.05097983E-04 -4.58472895E-03  2.58279746E-02  1.07012345E-02  2.57339741E-02
  1.06506348E-02  1.29997978E-01 -2.63787699E-01 -9.43337068E-02  9.04999560E-05
 -5.68334557E-02 -2.40086554E-01 -4.18021270E-02  7.29282907E-05 -2.51854506E-02
 -1.35913502E-01 -5.69382719E-02 -1.36960637E-01 -5.74250951E-02  7.48451046E-03
 -1.57700309E-02  2.14228954E-03 -1.62008190E-04  1.59577547E-02 -8.99981544E-03
  3.72898443E-03 -8.50843707E-06  7.10446741E-03 -1.69801559E-02 -1.24087226E-02
  3.43091654E-04 -6.98069708E-04 -1.19749289E-03  8.06018661E-04 -3.28588399E-04
 -6.27235665E-04 -6.52988481E-04  9.21470789E-04  4.68081810E-04 -6.18406565E-04
 -6.61244524E-04 -1.34540006E-04  3.43932706E-04 -7.59503425E-03  1.60014626E-02
  8.49136754E-03  1.27033052E-02  5.82685657E-03  9.12723952E-03  5.86503696E-03
  4.17751404E-03  3.83667568E-03  1.72393822E-02  1.26024696E-02 -1.32393912E-01
  2.68650206E-01 -9.59350006E-02  4.27504409E-04 -5.81017651E-02  2.44510429E-01
 -4.25314304E-02  1.86481381E-04 -2.57146295E-02  1.38416797E-01  5.79873755E-02
  1.39486716E-01  5.84840107E-02 -1.30048187E-01  2.63858156E-01  9.44856925E-02
 -1.10725340E-04  5.69234048E-02  2.40216029E-01  4.18470570E-02 -9.51399371E-05
  2.51605988E-02  1.35990607E-01  5.69867550E-02  1.37079532E-01  5.74683407E-02
 -6.11735589E-03  1.28060163E-02 -2.19476001E-03  2.55444902E-04 -1.37376864E-02
  7.10139637E-03 -4.46679422E-03  9.81242572E-05 -6.02685347E-03  1.43228324E-02
  1.06596827E-02  3.48878916E-02 -7.09810293E-02  1.27918060E-02  2.60569389E-02
 -2.10339067E-02 -6.37647290E-02  5.91504325E-03  1.20434877E-02 -9.73047189E-03
 -3.83074100E-02 -1.61429684E-02 -3.83091916E-02 -1.61515943E-02 -5.97590718E-03
  1.25082055E-02  7.35538358E-03  1.03593961E-02  4.87880705E-03  6.93048472E-03
  5.79333682E-03  2.75282709E-03  3.59563249E-03  1.40021424E-02  1.04258346E-02
 -1.27605050E-01  2.58901880E-01 -9.25877972E-02  4.12733866E-04 -5.60514455E-02
  2.35702312E-01 -4.10111929E-02  2.22035054E-04 -2.47670465E-02  1.33434268E-01
  5.59158706E-02  1.34506054E-01  5.63892192E-02  1.15600808E-02 -2.32602525E-02
 -6.13287651E-03  3.14066407E-04 -5.43351192E-03 -2.55697749E-02  4.73937829E-04
  4.09192348E-04  1.26722063E-03 -1.15423757E-02 -4.76504183E-03 -1.10207183E-02
 -2.54445602E-03 -1.24173933E-01  2.57713872E-01  3.80013616E-03  2.21135043E-03
 -1.68985610E-01  2.29996491E-01  1.70239942E-03  1.27965676E-03 -5.79129621E-02
  2.09614590E-01  1.17922490E-01  3.41441785E-04 -6.99322013E-04 -1.83355459E-03
  6.75749548E-04 -7.07465062E-04 -7.19477723E-04 -4.35512229E-03  2.61866784E-03
  5.54146001E-04 -5.21143121E-04 -8.13425433E-04 -1.62245500E-04  6.01054125E-04
  1.17885857E-01 -2.44665711E-01 -6.54909419E-02 -1.38888747E-01 -4.67460817E-02
 -2.18328138E-01 -2.23994642E-02 -4.78438790E-02 -1.54535603E-02 -1.99024358E-01
 -1.11976748E-01 -1.09745845E-02  2.20826517E-02 -6.65998696E-03 -1.39875017E-03
 -3.79801307E-03  2.42681881E-02  6.34806104E-04  7.67777400E-04  8.83593949E-04
  1.09609197E-02  4.52567744E-03  1.04670731E-02  2.42230472E-03  1.09655153E-02
 -2.20563680E-02 -5.60852016E-03  3.26665368E-04 -5.05331939E-03 -2.43977791E-02
  5.75060144E-04  4.13342528E-04  1.36435108E-03 -1.08863812E-02 -4.48762761E-03
 -1.03413003E-02 -2.24986020E-03 -1.17867873E-01  2.44544398E-01  3.27879685E-03
  2.00822337E-03 -1.59610194E-01  2.18879479E-01  1.14182837E-03  1.23442812E-03
 -5.44129870E-02  1.98359137E-01  1.11350399E-01  1.32164466E-02 -2.70818550E-02
  3.54677776E-03  7.11670792E-03 -5.74101491E-03 -2.78069594E-02  4.57215681E-04
  6.30840264E-04 -5.78121925E-04 -1.32482374E-02 -4.12568304E-03 -1.32556057E-02
 -4.16059569E-03 -1.24161030E-01  2.57604014E-01  6.88348981E-02  1.45384515E-01
  4.92011539E-02  2.30541900E-01  2.37277904E-02  4.96319489E-02  1.62845628E-02
  2.08976363E-01  1.17323497E-01  1.15508765E-02 -2.32342988E-02  6.81699310E-03
  1.49747650E-03  3.84674931E-03 -2.56931455E-02 -8.24505769E-04 -8.83936971E-04
 -1.06091759E-03 -1.14708756E-02 -4.72940898E-03 -1.08982489E-02 -2.37717143E-03
 -1.88466086E-05  3.32795629E-05 -6.96800401E-03 -1.45136166E-06  1.13521504E-02
  9.82480778E-05 -2.55662375E-03 -4.68907410E-06  4.19724868E-03  7.69886418E-03
  6.50977305E-03 -7.69446712E-03 -6.55735837E-03 -4.43138763E-05  9.65477905E-05
 -1.11876623E-05  1.17602157E-05 -1.41083429E-05  5.62358266E-05  1.52065067E-05
  2.25153478E-05  5.69582017E-07  1.12606193E-04  6.50668974E-05 -2.39389189E-04
  3.06743575E-04  6.67987916E-04  1.66217523E-03  1.88910312E-03  1.38724163E-03
  9.93204535E-05  1.05266028E-03  8.01466439E-04  1.47829044E-03  9.88396527E-04
 -1.37261286E-03 -1.95915972E-03  1.90683378E-03 -3.82794972E-03 -7.28068569E-04
  1.50842070E-03 -2.67303982E-04 -4.04197637E-03 -1.41513811E-04  2.13743978E-03
  1.08810449E-04 -2.75535084E-03 -1.34382683E-03  5.36900244E-04 -9.32914632E-04
 -1.46286983E-02  4.45296388E-01  2.11594840E-02 -2.84578808E-03 -4.64184485E-03
  1.64223923E-01  8.26471732E-03 -2.57873413E-01 -2.18100367E-01  2.57503241E-01
  2.19417178E-01 -5.35962468E-04  9.31253529E-04 -2.32946272E-01  6.12449593E-05
  3.80374341E-01  2.84093379E-03 -8.51581851E-02  2.68142464E-05  1.40744110E-01