Title section
SP        RHF                                                         CC-pVDZ
Number of atoms                            I               13
Info1-9                                    I   N=           9
          24          23           0           0           0         110
           1           1           2
Full Title                                 C   N=           2
Title section
Route                                      C   N=          10
#p int=(nobasistransform) nosymm pop=full punch=gamessinput
gfprint rhf/cc-pvdz 6D 10F SCF=(xqc, maxcycle=500)
Charge                                     I                0
Multiplicity                               I                1
Number of electrons                        I               38
Number of alpha electrons                  I               19
Number of beta electrons                   I               19
Number of basis functions                  I              115
Number of independent functions            I              115
Number of point charges in /Mol/           I                0
Number of translation vectors              I                0
Atomic numbers                             I   N=          13
           6           1           1           6           1           6
           1           1           6           1           6           1
           1
Nuclear charges                            R   N=          13
  6.00000000E+00  1.00000000E+00  1.00000000E+00  6.00000000E+00  1.00000000E+00
  6.00000000E+00  1.00000000E+00  1.00000000E+00  6.00000000E+00  1.00000000E+00
  6.00000000E+00  1.00000000E+00  1.00000000E+00
Current cartesian coordinates              R   N=          39
  0.00000000E+00  0.00000000E+00  0.00000000E+00  0.00000000E+00  0.00000000E+00
  2.06942179E+00  1.84080346E+00  0.00000000E+00 -9.37054449E-01 -2.15266634E+00
 -1.03508048E-02 -1.31829910E+00 -2.07523179E+00  1.36884202E-03 -3.39050347E+00
 -4.77194990E+00  2.73112668E-03 -1.86310706E-01 -4.61165999E+00 -1.02800969E-01
  1.89315622E+00 -5.81632173E+00 -1.69442267E+00 -8.10969503E-01 -6.25859852E+00
  2.32555258E+00 -9.18565652E-01 -5.44348955E+00  4.13422414E+00 -3.14807963E-01
 -8.41025945E+00  2.31744330E+00 -2.23849095E+00 -9.27615940E+00  5.51864770E-01
 -2.88305652E+00 -9.39122163E+00  4.07136569E+00 -2.71602785E+00
Number of symbols in /Mol/                 I                0
Force Field                                I                0
Atom Types                                 C   N=          13



Int Atom Types                             I   N=          13
           0           0           0           0           0           0
           0           0           0           0           0           0
           0
MM charges                                 R   N=          13
  0.00000000E+00  0.00000000E+00  0.00000000E+00  0.00000000E+00  0.00000000E+00
  0.00000000E+00  0.00000000E+00  0.00000000E+00  0.00000000E+00  0.00000000E+00
  0.00000000E+00  0.00000000E+00  0.00000000E+00
Integer atomic weights                     I   N=          13
          12           1           1          12           1          12
           1           1          12           1          12           1
           1
Real atomic weights                        R   N=          13
  1.20000000E+01  1.00782504E+00  1.00782504E+00  1.20000000E+01  1.00782504E+00
  1.20000000E+01  1.00782504E+00  1.00782504E+00  1.20000000E+01  1.00782504E+00
  1.20000000E+01  1.00782504E+00  1.00782504E+00
Atom fragment info                         I   N=          13
           0           0           0           0           0           0
           0           0           0           0           0           0
           0
Atom residue num                           I   N=          13
           0           0           0           0           0           0
           0           0           0           0           0           0
           0
Nuclear spins                              I   N=          13
           0           1           1           0           1           0
           1           1           0           1           0           1
           1
Nuclear ZEff                               R   N=          13
 -3.60000000E+00 -1.00000000E+00 -1.00000000E+00 -3.60000000E+00 -1.00000000E+00
 -3.60000000E+00 -1.00000000E+00 -1.00000000E+00 -3.60000000E+00 -1.00000000E+00
 -3.60000000E+00 -1.00000000E+00 -1.00000000E+00
Nuclear ZNuc                               R   N=          13
  6.00000000E+00  1.00000000E+00  1.00000000E+00  6.00000000E+00  1.00000000E+00
  6.00000000E+00  1.00000000E+00  1.00000000E+00  6.00000000E+00  1.00000000E+00
  6.00000000E+00  1.00000000E+00  1.00000000E+00
Nuclear QMom                               R   N=          13
  0.00000000E+00  0.00000000E+00  0.00000000E+00  0.00000000E+00  0.00000000E+00
  0.00000000E+00  0.00000000E+00  0.00000000E+00  0.00000000E+00  0.00000000E+00
  0.00000000E+00  0.00000000E+00  0.00000000E+00
Nuclear GFac                               R   N=          13
  0.00000000E+00  2.79284600E+00  2.79284600E+00  0.00000000E+00  2.79284600E+00
  0.00000000E+00  2.79284600E+00  2.79284600E+00  0.00000000E+00  2.79284600E+00
  0.00000000E+00  2.79284600E+00  2.79284600E+00
MicOpt                                     I   N=          13
          -1          -1          -1          -1          -1          -1
          -1          -1          -1          -1          -1          -1
          -1
Number of residues                         I                0
Number of secondary structures             I                0
Number of contracted shells                I               54
Number of primitive shells                 I              150
Pure/Cartesian d shells                    I                1
Pure/Cartesian f shells                    I                1
Highest angular momentum                   I                2
Largest degree of contraction              I                8
Shell types                                I   N=          54
           0           0           0           1           1           2
           0           0           1           0           0           1
           0           0           0           1           1           2
           0           0           1           0           0           0
           1           1           2           0           0           1
           0           0           1           0           0           0
           1           1           2           0           0           1
           0           0           0           1           1           2
           0           0           1           0           0           1
Number of primitives per shell             I   N=          54
           8           8           1           3           1           1
           3           1           1           3           1           1
           8           8           1           3           1           1
           3           1           1           8           8           1
           3           1           1           3           1           1
           3           1           1           8           8           1
           3           1           1           3           1           1
           8           8           1           3           1           1
           3           1           1           3           1           1
Shell to atom map                          I   N=          54
           1           1           1           1           1           1
           2           2           2           3           3           3
           4           4           4           4           4           4
           5           5           5           6           6           6
           6           6           6           7           7           7
           8           8           8           9           9           9
           9           9           9          10          10          10
          11          11          11          11          11          11
          12          12          12          13          13          13
Primitive exponents                        R   N=         150
  6.66500000E+03  1.00000000E+03  2.28000000E+02  6.47100000E+01  2.10600000E+01
  7.49500000E+00  2.79700000E+00  5.21500000E-01  6.66500000E+03  1.00000000E+03
  2.28000000E+02  6.47100000E+01  2.10600000E+01  7.49500000E+00  2.79700000E+00
  5.21500000E-01  1.59600000E-01  9.43900000E+00  2.00200000E+00  5.45600000E-01
  1.51700000E-01  5.50000000E-01  1.30100000E+01  1.96200000E+00  4.44600000E-01
  1.22000000E-01  7.27000000E-01  1.30100000E+01  1.96200000E+00  4.44600000E-01
  1.22000000E-01  7.27000000E-01  6.66500000E+03  1.00000000E+03  2.28000000E+02
  6.47100000E+01  2.10600000E+01  7.49500000E+00  2.79700000E+00  5.21500000E-01
  6.66500000E+03  1.00000000E+03  2.28000000E+02  6.47100000E+01  2.10600000E+01
  7.49500000E+00  2.79700000E+00  5.21500000E-01  1.59600000E-01  9.43900000E+00
  2.00200000E+00  5.45600000E-01  1.51700000E-01  5.50000000E-01  1.30100000E+01
  1.96200000E+00  4.44600000E-01  1.22000000E-01  7.27000000E-01  6.66500000E+03
  1.00000000E+03  2.28000000E+02  6.47100000E+01  2.10600000E+01  7.49500000E+00
  2.79700000E+00  5.21500000E-01  6.66500000E+03  1.00000000E+03  2.28000000E+02
  6.47100000E+01  2.10600000E+01  7.49500000E+00  2.79700000E+00  5.21500000E-01
  1.59600000E-01  9.43900000E+00  2.00200000E+00  5.45600000E-01  1.51700000E-01
  5.50000000E-01  1.30100000E+01  1.96200000E+00  4.44600000E-01  1.22000000E-01
  7.27000000E-01  1.30100000E+01  1.96200000E+00  4.44600000E-01  1.22000000E-01
  7.27000000E-01  6.66500000E+03  1.00000000E+03  2.28000000E+02  6.47100000E+01
  2.10600000E+01  7.49500000E+00  2.79700000E+00  5.21500000E-01  6.66500000E+03
  1.00000000E+03  2.28000000E+02  6.47100000E+01  2.10600000E+01  7.49500000E+00
  2.79700000E+00  5.21500000E-01  1.59600000E-01  9.43900000E+00  2.00200000E+00
  5.45600000E-01  1.51700000E-01  5.50000000E-01  1.30100000E+01  1.96200000E+00
  4.44600000E-01  1.22000000E-01  7.27000000E-01  6.66500000E+03  1.00000000E+03
  2.28000000E+02  6.47100000E+01  2.10600000E+01  7.49500000E+00  2.79700000E+00
  5.21500000E-01  6.66500000E+03  1.00000000E+03  2.28000000E+02  6.47100000E+01
  2.10600000E+01  7.49500000E+00  2.79700000E+00  5.21500000E-01  1.59600000E-01
  9.43900000E+00  2.00200000E+00  5.45600000E-01  1.51700000E-01  5.50000000E-01
  1.30100000E+01  1.96200000E+00  4.44600000E-01  1.22000000E-01  7.27000000E-01
  1.30100000E+01  1.96200000E+00  4.44600000E-01  1.22000000E-01  7.27000000E-01
Contraction coefficients                   R   N=         150
  6.91583963E-04  5.32579615E-03  2.70607210E-02  1.01656846E-01  2.74574824E-01
  4.48294319E-01  2.84902611E-01  1.51948592E-02 -2.93269653E-04 -2.31803547E-03
 -1.14997860E-02 -4.68267270E-02 -1.28466169E-01 -3.01266272E-01 -2.55630702E-01
  1.09379336E+00  1.00000000E+00  5.69792516E-02  3.13207212E-01  7.60376742E-01
  1.00000000E+00  1.00000000E+00  3.34987264E-02  2.34800801E-01  8.13682958E-01
  1.00000000E+00  1.00000000E+00  3.34987264E-02  2.34800801E-01  8.13682958E-01
  1.00000000E+00  1.00000000E+00  6.91583963E-04  5.32579615E-03  2.70607210E-02
  1.01656846E-01  2.74574824E-01  4.48294319E-01  2.84902611E-01  1.51948592E-02
 -2.93269653E-04 -2.31803547E-03 -1.14997860E-02 -4.68267270E-02 -1.28466169E-01
 -3.01266272E-01 -2.55630702E-01  1.09379336E+00  1.00000000E+00  5.69792516E-02
  3.13207212E-01  7.60376742E-01  1.00000000E+00  1.00000000E+00  3.34987264E-02
  2.34800801E-01  8.13682958E-01  1.00000000E+00  1.00000000E+00  6.91583963E-04
  5.32579615E-03  2.70607210E-02  1.01656846E-01  2.74574824E-01  4.48294319E-01
  2.84902611E-01  1.51948592E-02 -2.93269653E-04 -2.31803547E-03 -1.14997860E-02
 -4.68267270E-02 -1.28466169E-01 -3.01266272E-01 -2.55630702E-01  1.09379336E+00
  1.00000000E+00  5.69792516E-02  3.13207212E-01  7.60376742E-01  1.00000000E+00
  1.00000000E+00  3.34987264E-02  2.34800801E-01  8.13682958E-01  1.00000000E+00
  1.00000000E+00  3.34987264E-02  2.34800801E-01  8.13682958E-01  1.00000000E+00
  1.00000000E+00  6.91583963E-04  5.32579615E-03  2.70607210E-02  1.01656846E-01
  2.74574824E-01  4.48294319E-01  2.84902611E-01  1.51948592E-02 -2.93269653E-04
 -2.31803547E-03 -1.14997860E-02 -4.68267270E-02 -1.28466169E-01 -3.01266272E-01
 -2.55630702E-01  1.09379336E+00  1.00000000E+00  5.69792516E-02  3.13207212E-01
  7.60376742E-01  1.00000000E+00  1.00000000E+00  3.34987264E-02  2.34800801E-01
  8.13682958E-01  1.00000000E+00  1.00000000E+00  6.91583963E-04  5.32579615E-03
  2.70607210E-02  1.01656846E-01  2.74574824E-01  4.48294319E-01  2.84902611E-01
  1.51948592E-02 -2.93269653E-04 -2.31803547E-03 -1.14997860E-02 -4.68267270E-02
 -1.28466169E-01 -3.01266272E-01 -2.55630702E-01  1.09379336E+00  1.00000000E+00
  5.69792516E-02  3.13207212E-01  7.60376742E-01  1.00000000E+00  1.00000000E+00
  3.34987264E-02  2.34800801E-01  8.13682958E-01  1.00000000E+00  1.00000000E+00
  3.34987264E-02  2.34800801E-01  8.13682958E-01  1.00000000E+00  1.00000000E+00
Coordinates of each shell                  R   N=         162
  0.00000000E+00  0.00000000E+00  0.00000000E+00  0.00000000E+00  0.00000000E+00
  0.00000000E+00  0.00000000E+00  0.00000000E+00  0.00000000E+00  0.00000000E+00
  0.00000000E+00  0.00000000E+00  0.00000000E+00  0.00000000E+00  0.00000000E+00
  0.00000000E+00  0.00000000E+00  0.00000000E+00  0.00000000E+00  0.00000000E+00
  2.06942179E+00  0.00000000E+00  0.00000000E+00  2.06942179E+00  0.00000000E+00
  0.00000000E+00  2.06942179E+00  1.84080346E+00  0.00000000E+00 -9.37054449E-01
  1.84080346E+00  0.00000000E+00 -9.37054449E-01  1.84080346E+00  0.00000000E+00
 -9.37054449E-01 -2.15266634E+00 -1.03508048E-02 -1.31829910E+00 -2.15266634E+00
 -1.03508048E-02 -1.31829910E+00 -2.15266634E+00 -1.03508048E-02 -1.31829910E+00
 -2.15266634E+00 -1.03508048E-02 -1.31829910E+00 -2.15266634E+00 -1.03508048E-02
 -1.31829910E+00 -2.15266634E+00 -1.03508048E-02 -1.31829910E+00 -2.07523179E+00
  1.36884202E-03 -3.39050347E+00 -2.07523179E+00  1.36884202E-03 -3.39050347E+00
 -2.07523179E+00  1.36884202E-03 -3.39050347E+00 -4.77194990E+00  2.73112668E-03
 -1.86310706E-01 -4.77194990E+00  2.73112668E-03 -1.86310706E-01 -4.77194990E+00
  2.73112668E-03 -1.86310706E-01 -4.77194990E+00  2.73112668E-03 -1.86310706E-01
 -4.77194990E+00  2.73112668E-03 -1.86310706E-01 -4.77194990E+00  2.73112668E-03
 -1.86310706E-01 -4.61165999E+00 -1.02800969E-01  1.89315622E+00 -4.61165999E+00
 -1.02800969E-01  1.89315622E+00 -4.61165999E+00 -1.02800969E-01  1.89315622E+00
 -5.81632173E+00 -1.69442267E+00 -8.10969503E-01 -5.81632173E+00 -1.69442267E+00
 -8.10969503E-01 -5.81632173E+00 -1.69442267E+00 -8.10969503E-01 -6.25859852E+00
  2.32555258E+00 -9.18565652E-01 -6.25859852E+00  2.32555258E+00 -9.18565652E-01
 -6.25859852E+00  2.32555258E+00 -9.18565652E-01 -6.25859852E+00  2.32555258E+00
 -9.18565652E-01 -6.25859852E+00  2.32555258E+00 -9.18565652E-01 -6.25859852E+00
  2.32555258E+00 -9.18565652E-01 -5.44348955E+00  4.13422414E+00 -3.14807963E-01
 -5.44348955E+00  4.13422414E+00 -3.14807963E-01 -5.44348955E+00  4.13422414E+00
 -3.14807963E-01 -8.41025945E+00  2.31744330E+00 -2.23849095E+00 -8.41025945E+00
  2.31744330E+00 -2.23849095E+00 -8.41025945E+00  2.31744330E+00 -2.23849095E+00
 -8.41025945E+00  2.31744330E+00 -2.23849095E+00 -8.41025945E+00  2.31744330E+00
 -2.23849095E+00 -8.41025945E+00  2.31744330E+00 -2.23849095E+00 -9.27615940E+00
  5.51864770E-01 -2.88305652E+00 -9.27615940E+00  5.51864770E-01 -2.88305652E+00
 -9.27615940E+00  5.51864770E-01 -2.88305652E+00 -9.39122163E+00  4.07136569E+00
 -2.71602785E+00 -9.39122163E+00  4.07136569E+00 -2.71602785E+00 -9.39122163E+00
  4.07136569E+00 -2.71602785E+00
Num ILSW                                   I              100
ILSW                                       I   N=         100
           0           1           0           0           2           0
           0           0           0           0           0          -1
           5           0           0           1           0           0
           0           0           0           0           0           0
           1           1           0           0           0           0
           0           0      100000           0          -1           0
           0           0           0           0           0           0
           0           0           0           1           0           0
           0 -2000000000           1           0           0           0
           0           0           4          52           0           0
           0           0           0           0           0           0
           0           0           0          13           0           1
           0           0           0           0           0           0
           0           0           0           0           0           0
           0           0           0           0           0           0
           0           0           0           0           0           0
           0           0           0           0
Num RLSW                                   I               52
RLSW                                       R   N=          52
  1.00000000E+00  1.00000000E+00  1.00000000E+00  1.00000000E+00  1.00000000E+00
  0.00000000E+00  0.00000000E+00  1.00000000E+00  0.00000000E+00  0.00000000E+00
  0.00000000E+00  0.00000000E+00  1.00000000E+00  0.00000000E+00  0.00000000E+00
  0.00000000E+00  0.00000000E+00  1.00000000E+00  0.00000000E+00  0.00000000E+00
  0.00000000E+00  0.00000000E+00  1.00000000E+00  0.00000000E+00  0.00000000E+00
  0.00000000E+00  0.00000000E+00  1.00000000E+00  0.00000000E+00  0.00000000E+00
  0.00000000E+00  0.00000000E+00  1.00000000E+00  0.00000000E+00  0.00000000E+00
  0.00000000E+00  0.00000000E+00  0.00000000E+00  1.00000000E+00  1.00000000E+00
  0.00000000E+00  1.00000000E+00  0.00000000E+00  0.00000000E+00  0.00000000E+00
  0.00000000E+00  0.00000000E+00  0.00000000E+00  0.00000000E+00  0.00000000E+00
  0.00000000E+00  0.00000000E+00
MxBond                                     I                4
NBond                                      I   N=          13
           3           1           1           3           1           4
           1           1           3           1           3           1
           1
IBond                                      I   N=          52
           2           3           4           0           1           0
           0           0           1           0           0           0
           1           5           6           0           4           0
           0           0           4           7           8           9
           6           0           0           0           6           0
           0           0           6          10          11           0
           9           0           0           0           9          12
          13           0          11           0           0           0
          11           0           0           0
RBond                                      R   N=          52
  1.00000000E+00  1.00000000E+00  2.00000000E+00  0.00000000E+00  1.00000000E+00
  0.00000000E+00  0.00000000E+00  0.00000000E+00  1.00000000E+00  0.00000000E+00
  0.00000000E+00  0.00000000E+00  2.00000000E+00  1.00000000E+00  1.00000000E+00
  0.00000000E+00  1.00000000E+00  0.00000000E+00  0.00000000E+00  0.00000000E+00
  1.00000000E+00  1.00000000E+00  1.00000000E+00  1.00000000E+00  1.00000000E+00
  0.00000000E+00  0.00000000E+00  0.00000000E+00  1.00000000E+00  0.00000000E+00
  0.00000000E+00  0.00000000E+00  1.00000000E+00  1.00000000E+00  2.00000000E+00
  0.00000000E+00  1.00000000E+00  0.00000000E+00  0.00000000E+00  0.00000000E+00
  2.00000000E+00  1.00000000E+00  1.00000000E+00  0.00000000E+00  1.00000000E+00
  0.00000000E+00  0.00000000E+00  0.00000000E+00  1.00000000E+00  0.00000000E+00
  0.00000000E+00  0.00000000E+00
Virial Ratio                               R      2.003036189697007E+00
SCF Energy                                 R     -1.939658723388475E+02
Total Energy                               R     -1.939658723388475E+02
RMS Density                                R      2.589798862516146E-09
Job Status                                 I                1
Nuclear derivative order                   I                0
External E-field                           R   N=          35
  0.00000000E+00  0.00000000E+00  0.00000000E+00  0.00000000E+00  0.00000000E+00
  0.00000000E+00  0.00000000E+00  0.00000000E+00  0.00000000E+00  0.00000000E+00
  0.00000000E+00  0.00000000E+00  0.00000000E+00  0.00000000E+00  0.00000000E+00
  0.00000000E+00  0.00000000E+00  0.00000000E+00  0.00000000E+00  0.00000000E+00
  0.00000000E+00  0.00000000E+00  0.00000000E+00  0.00000000E+00  0.00000000E+00
  0.00000000E+00  0.00000000E+00  0.00000000E+00  0.00000000E+00  0.00000000E+00
  0.00000000E+00  0.00000000E+00  0.00000000E+00  0.00000000E+00  0.00000000E+00
IOpCl                                      I                0
IROHF                                      I                0
Alpha Orbital Energies                     R   N=         115
 -1.12431675E+01 -1.12427846E+01 -1.12422352E+01 -1.12320521E+01 -1.12320510E+01
 -1.09197631E+00 -1.02665453E+00 -9.23452454E-01 -7.73063984E-01 -7.44436183E-01
 -6.55166914E-01 -6.02687171E-01 -5.88607116E-01 -5.87809398E-01 -5.09588619E-01
 -4.96329668E-01 -4.89023462E-01 -3.70022352E-01 -3.54574618E-01  1.50425190E-01
  1.96376520E-01  1.97633374E-01  2.13196349E-01  2.21988115E-01  2.23129878E-01
  2.52035701E-01  2.82034031E-01  2.85596820E-01  2.90894746E-01  4.03343927E-01
  4.12949507E-01  4.85874562E-01  5.03721372E-01  5.94440813E-01  6.07502080E-01
  6.20401292E-01  6.20734195E-01  6.74605112E-01  7.07678758E-01  7.18070110E-01
  7.36804527E-01  7.64623532E-01  7.84838050E-01  8.24924163E-01  8.59976422E-01
  8.65147763E-01  8.66465225E-01  8.93678196E-01  9.05046780E-01  9.20832175E-01
  9.29087813E-01  9.30601231E-01  9.77113780E-01  9.78615442E-01  1.06633705E+00
  1.10618201E+00  1.18714716E+00  1.20514714E+00  1.20935939E+00  1.21258372E+00
  1.25900908E+00  1.28624375E+00  1.31363245E+00  1.33705400E+00  1.35159805E+00
  1.47420393E+00  1.54131075E+00  1.55814063E+00  1.66259941E+00  1.69757468E+00
  1.72892017E+00  1.74274699E+00  1.74555312E+00  1.77033983E+00  1.84332837E+00
  1.84835026E+00  1.86075165E+00  1.87634699E+00  1.91066375E+00  1.94365770E+00
  1.95620149E+00  1.96437180E+00  1.97997943E+00  1.99434739E+00  2.00958567E+00
  2.06441410E+00  2.13302042E+00  2.17811011E+00  2.18381485E+00  2.18619703E+00
  2.22340532E+00  2.25669979E+00  2.27246247E+00  2.39513812E+00  2.40532541E+00
  2.49514680E+00  2.49624832E+00  2.51993393E+00  2.53687829E+00  2.57939588E+00
  2.61999335E+00  2.69055509E+00  2.76457040E+00  2.77477458E+00  2.81754550E+00
  2.92130149E+00  2.96812472E+00  2.97951113E+00  3.11507433E+00  3.11527281E+00
  3.23163113E+00  3.34238177E+00  3.50617712E+00  3.70734283E+00  3.88087803E+00
Alpha MO coefficients                      R   N=       13225
  6.54386205E-04 -3.26762818E-05  7.16408890E-04 -4.14895092E-05  6.30157166E-05
 -4.88849525E-05 -3.99763562E-04  1.11734377E-04 -1.71133734E-04 -4.69805755E-05
 -7.22597996E-05  6.99629381E-05  3.11598749E-07  2.48615181E-05  1.02067888E-05
  5.92438062E-05  1.16352313E-04  2.17562898E-05 -3.95152875E-07  1.49048049E-05
 -1.36594487E-04 -3.25605229E-05 -2.09821667E-06  1.77943117E-06  5.57432985E-06
  1.64836208E-02 -5.97001410E-04  1.91592457E-04  1.10270928E-03 -1.12499974E-04
 -6.37587857E-04 -5.55158467E-04  7.36315928E-05 -2.55165102E-04 -1.58169422E-04
 -6.25016413E-05 -9.60656926E-06  5.16719937E-05  3.61395111E-05  6.79989093E-06
  3.44563376E-04  3.55133465E-04  4.49942274E-05  1.79820405E-06  2.34321047E-05
  1.00145761E+00  3.16914462E-03 -5.40973378E-03 -7.13525221E-04 -1.45494290E-03
  1.17423404E-03 -6.04173414E-04 -1.23225906E-03  9.94559730E-04 -2.25778764E-03
 -2.18634988E-03 -2.08228024E-03  9.43228658E-05  7.25411185E-05  6.91010352E-05
  1.00963321E-03  7.37895495E-04 -7.36523376E-06 -2.22594206E-06 -6.25687085E-05
  1.00969868E-03  7.38034227E-04  3.05133073E-05  4.94232747E-05  2.44616818E-05
  1.64809404E-02 -5.96954319E-04  1.91989854E-04 -6.13972339E-04  1.10916453E-03
 -1.66680680E-04  5.58916332E-04 -6.60791538E-05  2.48925093E-04 -1.24097360E-04
 -7.52786299E-05 -3.08917752E-05  8.81364378E-05  1.12135869E-05  2.79867438E-05
  3.44578157E-04  3.55289461E-04 -4.23946867E-05  3.39917881E-06 -2.76538344E-05
  6.54991992E-04 -3.26445592E-05  7.16197035E-04  8.41100963E-05  2.38430540E-05
 -2.12427804E-05  4.27595183E-04 -5.47728343E-05  1.25055614E-04 -2.39095875E-05
  1.81524118E-05 -4.35277849E-05  5.30743773E-05  4.27567918E-05  4.92558704E-05
  5.92311926E-05  1.16320310E-04 -2.26670540E-05 -1.45737155E-06 -1.34086889E-05
 -1.36568995E-04 -3.25517328E-05  1.66237069E-07 -5.73846763E-06 -2.36266688E-06
  1.70220249E-01  3.13543973E-05 -2.59915171E-04  1.00893548E-03 -1.98555115E-05
  5.92046304E-04 -3.47022747E-05  3.76688288E-05  3.89972844E-04 -4.73125208E-04
 -4.40748850E-04 -5.18432460E-04 -1.35076327E-05  1.39462910E-04 -2.28526584E-06
  4.55217258E-04  2.73753258E-04 -2.14033108E-05 -5.84245875E-06 -8.00922796E-05
  2.94751265E-04  1.75412164E-04 -6.77049234E-05 -5.07891050E-06  1.17757595E-05
  7.91117166E-01  1.90619738E-03 -2.53753599E-03 -1.43876789E-04  8.02528740E-05
 -1.51042015E-03  7.99734857E-04 -1.12058415E-04 -6.19071959E-04 -1.75681458E-03
 -2.02624287E-03 -1.73413511E-03  4.01886030E-06  1.50321509E-04  1.02639377E-05
  8.36926590E-04  6.22362123E-04 -2.39809346E-05  1.60520614E-05  8.90482683E-06
 -3.55168608E-03 -9.85059820E-05 -1.11777282E-04 -1.16688830E-03  5.49682083E-04
  2.38253075E-04 -1.03062847E-04 -1.54022769E-04 -3.44496709E-05 -6.07232126E-05
  1.08546250E-04 -5.78180346E-05 -1.76263383E-05  7.24746533E-05 -1.54723279E-06
  2.82162400E-04  1.51883640E-04 -1.70162567E-05  3.21041414E-06 -2.26039888E-05
 -1.87521590E-04 -8.91404957E-05 -1.27615432E-05 -2.29329429E-06 -1.25436213E-05
 -5.76793613E-01 -1.41618272E-03  2.00842992E-03 -5.78392591E-04 -9.00544554E-04
 -3.04589174E-04  5.74668105E-04 -8.51163721E-04  1.31260863E-04  1.25638203E-03
  1.35177081E-03  1.37498311E-03 -4.75286767E-05 -1.57611403E-04 -4.61602811E-05
 -6.11370214E-04 -4.32352339E-04 -3.71984850E-05  1.71858582E-05 -1.43048842E-06
 -1.24128309E-01 -3.62424690E-05  3.55042346E-04  7.46207620E-04 -1.33080200E-05
  4.05732171E-04  1.49921184E-04  3.47225801E-04  1.39648024E-04  2.84195730E-04
  4.48890733E-04  3.15866417E-04 -2.51658598E-05 -1.23819987E-05 -1.06692165E-05
 -3.30293215E-04 -1.61503767E-04 -3.47693511E-05 -4.40366504E-05 -3.24396605E-05
 -2.26537628E-04 -1.37385475E-04 -3.08818954E-05  3.23451449E-05 -2.38735870E-05
  1.24604984E-01 -1.75963611E-05  3.49660502E-04  7.42412016E-04  6.73097814E-05
  4.45282043E-04 -7.56534620E-05  4.59705578E-05 -1.02016846E-04 -3.35696898E-04
 -3.37422649E-04 -3.60060565E-04  1.41596142E-08  1.16907699E-04 -1.82078093E-08
  3.36987209E-04  3.23926004E-04 -1.21636571E-05  5.11457174E-06 -4.59192847E-05
  1.76960420E-04  9.68607442E-05 -4.80605745E-05  4.54203189E-06  1.30412051E-05
  5.76346643E-01  1.30338108E-03 -1.32863869E-03 -1.46371678E-04 -5.09903248E-05
 -1.08683232E-03 -5.33117752E-04  9.90574184E-05 -4.70806899E-04 -1.32574145E-03
 -1.51579447E-03 -1.30680790E-03  1.96739144E-06  6.27876557E-05 -1.95441195E-06
  6.05912669E-04  5.23627171E-04  4.72694086E-05 -5.94338044E-06  3.21048944E-05
 -2.26439242E-02 -6.28345473E-04 -7.14223448E-04 -1.81012928E-04 -8.28445933E-04
  5.61638019E-04 -2.83533408E-04 -5.87028333E-04  4.98674978E-04 -6.82349374E-05
 -3.61074297E-05  4.06804652E-05  5.64437302E-05  1.57876898E-05  3.65826894E-05
  2.64860228E-04  1.80974591E-04 -8.62829721E-06  2.29758049E-05 -3.37128228E-05
  3.38569603E-04  2.18899124E-04  3.82100149E-05  2.76329014E-05 -1.73614109E-06
  7.90701338E-01  1.82423884E-03 -2.04088238E-03  7.49696332E-04  1.18063900E-03
  5.63584545E-04  4.93464500E-04  4.11109221E-04  2.57392763E-04 -1.81125984E-03
 -1.86338441E-03 -1.96247512E-03  4.56897565E-05  1.82996036E-04  4.27080412E-05
  8.32806868E-04  6.88938888E-04 -4.24605968E-05 -8.87019951E-06 -2.54965209E-05
  1.70984616E-01 -5.73749286E-06  2.53065381E-04 -9.80354020E-04  1.36190516E-05
 -6.62080135E-04  8.09012334E-05 -5.85597612E-05 -1.91586915E-05 -3.83077018E-04
 -6.10126115E-04 -4.30697774E-04  4.90017846E-05  5.11542851E-05  1.96379368E-05
  4.60100291E-04  3.92128963E-04  4.36822703E-05  4.89925222E-05  2.62294236E-05
  2.58736452E-04  1.45908850E-04  4.43404839E-05 -4.80124108E-05  2.04623382E-05
 -2.50142411E-01 -9.26460984E-04  4.39905346E-04 -2.10806930E-04 -2.02279585E-05
 -1.20378083E-04 -9.00913745E-05 -9.24818552E-06 -1.19176385E-05  5.57187017E-04
  6.57358900E-04  5.67359938E-04  1.07572106E-07 -6.68858644E-06  1.19774753E-06
 -1.11104015E-04 -1.02021269E-04  3.58430841E-06 -2.22735679E-06  8.35992692E-06
 -1.41654768E-04 -1.14442423E-04  1.17672822E-05 -2.94182966E-06 -3.38670084E-06
  5.35845785E-02  2.36734553E-04 -3.86289900E-04  1.55332251E-04  3.15385446E-05
 -2.16008304E-05  1.22494476E-04 -1.27365989E-05 -8.88700998E-05 -1.29591055E-04
 -1.21040477E-04 -1.01080001E-04 -5.98948082E-06 -2.87877800E-05  1.54797999E-05
 -6.62550350E-06 -2.40281385E-05 -8.44387407E-06  3.26813091E-06 -9.68365159E-06
  1.99868439E-03  1.36700283E-04 -5.20783453E-05 -2.74662775E-04  2.77790392E-04
 -8.04651248E-05  5.93848924E-05  1.05672403E-04 -1.84195501E-05  3.53896872E-05
  2.10146862E-05  1.24158166E-05 -3.24733195E-05  3.30969555E-05 -1.96836758E-05
 -7.04740035E-05 -5.64143163E-05 -1.59748924E-05  1.08412371E-05  1.01245843E-05
  3.86197810E-05  3.76786882E-05  8.53114937E-06 -6.49072701E-06  9.36207596E-06
 -2.04492517E-01 -9.44623652E-04  1.29824834E-03  3.34784257E-04 -2.71338517E-04