 Entering Gaussian System, Link 0=g16
 Input=COT-boat_opt.gjf
 Output=COT-boat_opt.log
 Initial command:
 /home/qingchun/software/g16A_modified_by_qingchun/g16/l1.exe "/scratch/qingchun/gaussian/Gau-29646.inp" -scrdir="/scratch/qingchun/gaussian/"
 Entering Link 1 = /home/qingchun/software/g16A_modified_by_qingchun/g16/l1.exe PID=     29647.
  
 Copyright (c) 1988,1990,1992,1993,1995,1998,2003,2009,2016,
            Gaussian, Inc.  All Rights Reserved.
  
 This is part of the Gaussian(R) 16 program.  It is based on
 the Gaussian(R) 09 system (copyright 2009, Gaussian, Inc.),
 the Gaussian(R) 03 system (copyright 2003, Gaussian, Inc.),
 the Gaussian(R) 98 system (copyright 1998, Gaussian, Inc.),
 the Gaussian(R) 94 system (copyright 1995, Gaussian, Inc.),
 the Gaussian 92(TM) system (copyright 1992, Gaussian, Inc.),
 the Gaussian 90(TM) system (copyright 1990, Gaussian, Inc.),
 the Gaussian 88(TM) system (copyright 1988, Gaussian, Inc.),
 the Gaussian 86(TM) system (copyright 1986, Carnegie Mellon
 University), and the Gaussian 82(TM) system (copyright 1983,
 Carnegie Mellon University). Gaussian is a federally registered
 trademark of Gaussian, Inc.
  
 This software contains proprietary and confidential information,
 including trade secrets, belonging to Gaussian, Inc.
  
 This software is provided under written license and may be
 used, copied, transmitted, or stored only in accord with that
 written license.
  
 The following legend is applicable only to US Government
 contracts under FAR:
  
                    RESTRICTED RIGHTS LEGEND
  
 Use, reproduction and disclosure by the US Government is
 subject to restrictions as set forth in subparagraphs (a)
 and (c) of the Commercial Computer Software - Restricted
 Rights clause in FAR 52.227-19.
  
 Gaussian, Inc.
 340 Quinnipiac St., Bldg. 40, Wallingford CT 06492
  
  
 ---------------------------------------------------------------
 Warning -- This program may not be used in any manner that
 competes with the business of Gaussian, Inc. or will provide
 assistance to any competitor of Gaussian, Inc.  The licensee
 of this program is prohibited from giving any competitor of
 Gaussian, Inc. access to this program.  By using this program,
 the user acknowledges that Gaussian, Inc. is engaged in the
 business of creating and licensing software in the field of
 computational chemistry and represents and warrants to the
 licensee that it is not a competitor of Gaussian, Inc. and that
 it will not use this program in any manner prohibited above.
 ---------------------------------------------------------------
  

 Cite this work as:
 Gaussian 16, Revision A.03,
 M. J. Frisch, G. W. Trucks, H. B. Schlegel, G. E. Scuseria, 
 M. A. Robb, J. R. Cheeseman, G. Scalmani, V. Barone, 
 G. A. Petersson, H. Nakatsuji, X. Li, M. Caricato, A. V. Marenich, 
 J. Bloino, B. G. Janesko, R. Gomperts, B. Mennucci, H. P. Hratchian, 
 J. V. Ortiz, A. F. Izmaylov, J. L. Sonnenberg, D. Williams-Young, 
 F. Ding, F. Lipparini, F. Egidi, J. Goings, B. Peng, A. Petrone, 
 T. Henderson, D. Ranasinghe, V. G. Zakrzewski, J. Gao, N. Rega, 
 G. Zheng, W. Liang, M. Hada, M. Ehara, K. Toyota, R. Fukuda, 
 J. Hasegawa, M. Ishida, T. Nakajima, Y. Honda, O. Kitao, H. Nakai, 
 T. Vreven, K. Throssell, J. A. Montgomery, Jr., J. E. Peralta, 
 F. Ogliaro, M. J. Bearpark, J. J. Heyd, E. N. Brothers, K. N. Kudin, 
 V. N. Staroverov, T. A. Keith, R. Kobayashi, J. Normand, 
 K. Raghavachari, A. P. Rendell, J. C. Burant, S. S. Iyengar, 
 J. Tomasi, M. Cossi, J. M. Millam, M. Klene, C. Adamo, R. Cammi, 
 J. W. Ochterski, R. L. Martin, K. Morokuma, O. Farkas, 
 J. B. Foresman, and D. J. Fox, Gaussian, Inc., Wallingford CT, 2016.
 
 ******************************************
 Gaussian 16:  ES64L-G16RevA.03 25-Dec-2016
                17-Apr-2020 
 ******************************************
 %nprocshared=8
 Will use up to    8 processors via shared memory.
 %mem=30GB
 %chk=COT-boat_opt.chk
 ------------------------
 # opt freq b3lyp/cc-pvdz
 ------------------------
 1/18=20,19=15,26=3,38=1/1,3;
 2/9=110,12=2,17=6,18=5,40=1/2;
 3/5=16,11=2,25=1,30=1,71=1,74=-5/1,2,3;
 4//1;
 5/5=2,38=5/2;
 6/7=2,8=2,9=2,10=2,28=1/1;
 7//1,2,3,16;
 1/18=20,19=15,26=3/3(2);
 2/9=110/2;
 99//99;
 2/9=110/2;
 3/5=16,11=2,25=1,30=1,71=1,74=-5/1,2,3;
 4/5=5,16=3,69=1/1;
 5/5=2,38=5/2;
 7//1,2,3,16;
 1/18=20,19=15,26=3/3(-5);
 2/9=110/2;
 6/7=2,8=2,9=2,10=2,19=2,28=1/1;
 99/9=1/99;
 -------
 cc-pVDZ
 -------
 Symbolic Z-matrix:
 Charge =  0 Multiplicity = 1
 C                    -1.31876   1.1354    0. 
 C                     0.19536   1.1354    0. 
 C                    -0.69072   4.64184   0. 
 C                     0.84976   2.21812   0.83805 
 C                    -0.58183   4.33626   1.39476 
 C                     0.16055   3.12108   1.90935 
 H                    -1.67972   0.56892   0.90151 
 H                     0.5563    1.20085  -1.06183 
 H                     1.71986   1.54306   0.63042 
 H                    -0.44898   5.29428  -0.88201 
 H                    -0.0796    5.24688   1.82191 
 H                    -0.17333   2.94426   2.96851 
 C                    -2.01001   2.48252  -0.00035 
 H                    -2.87264   1.77753   0.14417 
 C                    -1.34513   3.55911  -0.83802 
 H                    -0.59431   3.1005   -1.53216 
 

 GradGradGradGradGradGradGradGradGradGradGradGradGradGradGradGradGradGrad
 Berny optimization.
 Initialization pass.
                           ----------------------------
                           !    Initial Parameters    !
                           ! (Angstroms and Degrees)  !
 --------------------------                            --------------------------
 ! Name  Definition              Value          Derivative Info.                !
 --------------------------------------------------------------------------------
 ! R1    R(1,2)                  1.5141         estimate D2E/DX2                !
 ! R2    R(1,7)                  1.1242         estimate D2E/DX2                !
 ! R3    R(1,13)                 1.5141         estimate D2E/DX2                !
 ! R4    R(2,4)                  1.5175         estimate D2E/DX2                !
 ! R5    R(2,8)                  1.1234         estimate D2E/DX2                !
 ! R6    R(3,5)                  1.432          estimate D2E/DX2                !
 ! R7    R(3,10)                 1.1234         estimate D2E/DX2                !
 ! R8    R(3,15)                 1.5175         estimate D2E/DX2                !
 ! R9    R(4,6)                  1.5614         estimate D2E/DX2                !
 ! R10   R(4,9)                  1.1207         estimate D2E/DX2                !
 ! R11   R(5,6)                  1.5141         estimate D2E/DX2                !
 ! R12   R(5,11)                 1.1242         estimate D2E/DX2                !
 ! R13   R(6,12)                 1.1245         estimate D2E/DX2                !
 ! R14   R(13,14)                1.1234         estimate D2E/DX2                !
 ! R15   R(13,15)                1.5175         estimate D2E/DX2                !
 ! R16   R(15,16)                1.1207         estimate D2E/DX2                !
 ! A1    A(2,1,7)              108.7276         estimate D2E/DX2                !
 ! A2    A(2,1,13)             117.1639         estimate D2E/DX2                !
 ! A3    A(7,1,13)             107.5725         estimate D2E/DX2                !
 ! A4    A(1,2,4)              115.5459         estimate D2E/DX2                !
 ! A5    A(1,2,8)              108.7412         estimate D2E/DX2                !
 ! A6    A(4,2,8)              109.9903         estimate D2E/DX2                !
 ! A7    A(5,3,10)             150.7241         estimate D2E/DX2                !
 ! A8    A(5,3,15)             114.7345         estimate D2E/DX2                !
 ! A9    A(10,3,15)             94.2205         estimate D2E/DX2                !
 ! A10   A(2,4,6)              126.953          estimate D2E/DX2                !
 ! A11   A(2,4,9)               78.6218         estimate D2E/DX2                !
 ! A12   A(6,4,9)              144.9023         estimate D2E/DX2                !
 ! A13   A(3,5,6)              122.6545         estimate D2E/DX2                !
 ! A14   A(3,5,11)             103.3672         estimate D2E/DX2                !
 ! A15   A(6,5,11)             107.5721         estimate D2E/DX2                !
 ! A16   A(4,6,5)              116.5742         estimate D2E/DX2                !
 ! A17   A(4,6,12)             133.3414         estimate D2E/DX2                !
 ! A18   A(5,6,12)             107.5014         estimate D2E/DX2                !
 ! A19   A(1,13,14)             78.0064         estimate D2E/DX2                !
 ! A20   A(1,13,15)            115.55           estimate D2E/DX2                !
 ! A21   A(14,13,15)           148.5034         estimate D2E/DX2                !
 ! A22   A(3,15,13)            112.9727         estimate D2E/DX2                !
 ! A23   A(3,15,16)            110.1893         estimate D2E/DX2                !
 ! A24   A(13,15,16)           110.1897         estimate D2E/DX2                !
 ! D1    D(7,1,2,4)            -84.4036         estimate D2E/DX2                !
 ! D2    D(7,1,2,8)            151.3827         estimate D2E/DX2                !
 ! D3    D(13,1,2,4)            37.7555         estimate D2E/DX2                !
 ! D4    D(13,1,2,8)           -86.4581         estimate D2E/DX2                !
 ! D5    D(2,1,13,14)         -172.4522         estimate D2E/DX2                !
 ! D6    D(2,1,13,15)           37.7077         estimate D2E/DX2                !
 ! D7    D(7,1,13,14)          -49.6976         estimate D2E/DX2                !
 ! D8    D(7,1,13,15)          160.4623         estimate D2E/DX2                !
 ! D9    D(1,2,4,6)             13.6509         estimate D2E/DX2                !
 ! D10   D(1,2,4,9)            166.8997         estimate D2E/DX2                !
 ! D11   D(8,2,4,6)            137.2109         estimate D2E/DX2                !
 ! D12   D(8,2,4,9)            -69.5403         estimate D2E/DX2                !
 ! D13   D(10,3,5,6)          -112.3803         estimate D2E/DX2                !
 ! D14   D(10,3,5,11)            9.0093         estimate D2E/DX2                !
 ! D15   D(15,3,5,6)            58.525          estimate D2E/DX2                !
 ! D16   D(15,3,5,11)          179.9147         estimate D2E/DX2                !
 ! D17   D(5,3,15,13)           11.637          estimate D2E/DX2                !
 ! D18   D(5,3,15,16)         -112.093          estimate D2E/DX2                !
 ! D19   D(10,3,15,13)        -172.8083         estimate D2E/DX2                !
 ! D20   D(10,3,15,16)          63.4617         estimate D2E/DX2                !
 ! D21   D(2,4,6,5)            -82.3259         estimate D2E/DX2                !
 ! D22   D(2,4,6,12)            76.8038         estimate D2E/DX2                !
 ! D23   D(9,4,6,5)            147.8007         estimate D2E/DX2                !
 ! D24   D(9,4,6,12)           -53.0695         estimate D2E/DX2                !
 ! D25   D(3,5,6,4)              1.6661         estimate D2E/DX2                !
 ! D26   D(3,5,6,12)          -162.5702         estimate D2E/DX2                !
 ! D27   D(11,5,6,4)          -117.7391         estimate D2E/DX2                !
 ! D28   D(11,5,6,12)           78.0246         estimate D2E/DX2                !
 ! D29   D(1,13,15,3)         -108.929          estimate D2E/DX2                !
 ! D30   D(1,13,15,16)          14.8008         estimate D2E/DX2                !
 ! D31   D(14,13,15,3)         141.234          estimate D2E/DX2                !
 ! D32   D(14,13,15,16)        -95.0362         estimate D2E/DX2                !
 --------------------------------------------------------------------------------
 Trust Radius=3.00D-01 FncErr=1.00D-07 GrdErr=1.00D-06 EigMax=2.50D+02 EigMin=1.00D-04
 Number of steps in this run=     82 maximum allowed number of steps=    100.
 GradGradGradGradGradGradGradGradGradGradGradGradGradGradGradGradGradGrad

                          Input orientation:                          
 ---------------------------------------------------------------------
 Center     Atomic      Atomic             Coordinates (Angstroms)
 Number     Number       Type             X           Y           Z
 ---------------------------------------------------------------------
      1          6           0       -1.318759    1.135402    0.000000
      2          6           0        0.195358    1.135402    0.000000
      3          6           0       -0.690723    4.641842    0.000000
      4          6           0        0.849760    2.218120    0.838045
      5          6           0       -0.581826    4.336260    1.394759
      6          6           0        0.160550    3.121084    1.909347
      7          1           0       -1.679718    0.568918    0.901508
      8          1           0        0.556304    1.200847   -1.061832
      9          1           0        1.719858    1.543056    0.630424
     10          1           0       -0.448980    5.294276   -0.882011
     11          1           0       -0.079600    5.246878    1.821908
     12          1           0       -0.173325    2.944260    2.968510
     13          6           0       -2.010011    2.482522   -0.000352
     14          1           0       -2.872643    1.777527    0.144175
     15          6           0       -1.345127    3.559111   -0.838022
     16          1           0       -0.594310    3.100498   -1.532163
 ---------------------------------------------------------------------
                    Distance matrix (angstroms):
                    1          2          3          4          5
     1  C    0.000000
     2  C    1.514117   0.000000
     3  C    3.562240   3.616664   0.000000
     4  C    2.564580   1.517511   2.991628   0.000000
     5  C    3.568461   3.576990   1.431988   2.616465   0.000000
     6  C    3.126802   2.754950   2.585145   1.561423   1.514125
     7  H    1.124238   2.156277   4.287136   3.020290   3.954937
     8  H    2.155837   1.123411   3.810907   2.174970   4.142583
     9  H    3.129985   1.699328   3.976281   1.120664   3.699182
    10  H    4.339435   4.299925   1.123412   3.756069   2.473686
    11  H    4.664665   4.505462   2.014668   3.317389   1.124239
    12  H    3.660060   3.495704   3.458546   2.472421   2.140381
    13  C    1.514121   2.584257   2.530451   2.991840   2.724406
    14  H    1.687503   3.137793   3.603590   3.812068   3.654985
    15  C    2.564633   2.991612   1.517508   3.070014   2.484331
    16  H    2.594986   2.613944   2.175445   2.912356   3.177127
                    6          7          8          9         10
     6  C    0.000000
     7  H    3.303918   0.000000
     8  H    3.559752   3.042011   0.000000
     9  H    2.560714   3.546765   2.081993   0.000000
    10  H    3.589703   5.198525   4.218897   4.589442   0.000000
    11  H    2.141102   5.028998   5.009061   4.286722   2.729444
    12  H    1.124530   3.490554   4.451461   3.318759   4.519411
    13  C    2.960750   2.141104   3.058660   3.897742   3.334682
    14  H    3.757823   1.859398   3.680311   4.624119   4.392576
    15  C    3.163378   3.475510   3.037588   3.951575   1.953410
    16  H    3.523383   3.675563   2.270198   3.529558   2.292702
                   11         12         13         14         15
    11  H    0.000000
    12  H    2.574011   0.000000
    13  C    3.832594   3.521471   0.000000
    14  H    4.759440   4.077310   1.123405   0.000000
    15  C    3.394899   4.029994   1.517500   2.544024   0.000000
    16  H    4.015179   4.523019   2.175442   3.122685   1.120662
                   16
    16  H    0.000000
 Stoichiometry    C8H8
 Framework group  C1[X(C8H8)]
 Deg. of freedom    42
 Full point group                 C1      NOp   1
 Largest Abelian subgroup         C1      NOp   1
 Largest concise Abelian subgroup C1      NOp   1
                         Standard orientation:                         
 ---------------------------------------------------------------------
 Center     Atomic      Atomic             Coordinates (Angstroms)
 Number     Number       Type             X           Y           Z
 ---------------------------------------------------------------------
      1          6           0        1.726522   -0.578033    0.467920
      2          6           0        1.722419    0.539558   -0.553610
      3          6           0       -1.702704   -0.620364   -0.495494
      4          6           0        0.485512    1.418702   -0.556784
      5          6           0       -1.698513    0.423344    0.484937
      6          6           0       -0.621248    1.485772    0.542591
      7          1           0        2.091066   -0.168576    1.449432
      8          1           0        1.881457    0.096715   -1.573732
      9          1           0        1.186823    2.021492   -1.189790
     10          1           0       -2.155053   -1.117367   -1.395729
     11          1           0       -2.680103    0.944186    0.314297
     12          1           0       -0.670925    1.962907    1.559665
     13          6           0        0.411668   -1.282844    0.726690
     14          1           0        1.072647   -1.722599    1.521525
     15          6           0       -0.465790   -1.499492   -0.492300
     16          1           0        0.126893   -1.336623   -1.429362
 ---------------------------------------------------------------------
 Rotational constants (GHZ):           2.9710877           2.3041405           1.6708061
 Standard basis: CC-pVDZ (5D, 7F)
 There are   160 symmetry adapted cartesian basis functions of A   symmetry.
 There are   152 symmetry adapted basis functions of A   symmetry.
   152 basis functions,   320 primitive gaussians,   160 cartesian basis functions
    28 alpha electrons       28 beta electrons
       nuclear repulsion energy       318.5518609799 Hartrees.
 NAtoms=   16 NActive=   16 NUniq=   16 SFac= 1.00D+00 NAtFMM=   60 NAOKFM=F Big=F
 Integral buffers will be    131072 words long.
 Raffenetti 2 integral format.
 Two-electron integral symmetry is turned on.
 One-electron integrals computed using PRISM.
 NBasis=   152 RedAO= T EigKep=  1.72D-03  NBF=   152
 NBsUse=   152 1.00D-06 EigRej= -1.00D+00 NBFU=   152
 ExpMin= 1.22D-01 ExpMax= 6.67D+03 ExpMxC= 2.28D+02 IAcc=3 IRadAn=         5 AccDes= 0.00D+00
 Harris functional with IExCor=  402 and IRadAn=       5 diagonalized for initial guess.
 HarFok:  IExCor=  402 AccDes= 0.00D+00 IRadAn=         5 IDoV= 1 UseB2=F ITyADJ=14
 ICtDFT=  3500011 ScaDFX=  1.000000  1.000000  1.000000  1.000000
 FoFCou: FMM=F IPFlag=           0 FMFlag=      100000 FMFlg1=           0
         NFxFlg=           0 DoJE=T BraDBF=F KetDBF=T FulRan=T
         wScrn=  0.000000 ICntrl=       500 IOpCl=  0 I1Cent=   200000004 NGrid=           0
         NMat0=    1 NMatS0=      1 NMatT0=    0 NMatD0=    1 NMtDS0=    0 NMtDT0=    0
 Petite list used in FoFCou.
 Requested convergence on RMS density matrix=1.00D-08 within 128 cycles.
 Requested convergence on MAX density matrix=1.00D-06.
 Requested convergence on             energy=1.00D-06.
 No special actions if energy rises.
 Integral accuracy reduced to 1.0D-05 until final iterations.
 Initial convergence to 1.0D-05 achieved.  Increase integral accuracy.
 SCF Done:  E(RB3LYP) =  -309.230362154     A.U. after   19 cycles
            NFock= 19  Conv=0.43D-08     -V/T= 2.0110

 **********************************************************************

            Population analysis using the SCF density.

 **********************************************************************

 Orbital symmetries:
       Occupied  (A) (A) (A) (A) (A) (A) (A) (A) (A) (A) (A) (A)
                 (A) (A) (A) (A) (A) (A) (A) (A) (A) (A) (A) (A)
                 (A) (A) (A) (A)
       Virtual   (A) (A) (A) (A) (A) (A) (A) (A) (A) (A) (A) (A)
                 (A) (A) (A) (A) (A) (A) (A) (A) (A) (A) (A) (A)
                 (A) (A) (A) (A) (A) (A) (A) (A) (A) (A) (A) (A)
                 (A) (A) (A) (A) (A) (A) (A) (A) (A) (A) (A) (A)
                 (A) (A) (A) (A) (A) (A) (A) (A) (A) (A) (A) (A)
                 (A) (A) (A) (A) (A) (A) (A) (A) (A) (A) (A) (A)
                 (A) (A) (A) (A) (A) (A) (A) (A) (A) (A) (A) (A)
                 (A) (A) (A) (A) (A) (A) (A) (A) (A) (A) (A) (A)
                 (A) (A) (A) (A) (A) (A) (A) (A) (A) (A) (A) (A)
                 (A) (A) (A) (A) (A) (A) (A) (A) (A) (A) (A) (A)
                 (A) (A) (A) (A)
 The electronic state is 1-A.
 Alpha  occ. eigenvalues --  -10.26137 -10.24030 -10.22786 -10.22451 -10.22402
 Alpha  occ. eigenvalues --  -10.22013 -10.21119 -10.19183  -0.83082  -0.77969
 Alpha  occ. eigenvalues --   -0.75956  -0.69125  -0.64965  -0.57843  -0.56227
 Alpha  occ. eigenvalues --   -0.50124  -0.46982  -0.45370  -0.42897  -0.40757
 Alpha  occ. eigenvalues --   -0.39436  -0.36443  -0.33041  -0.31639  -0.28420
 Alpha  occ. eigenvalues --   -0.25520  -0.24034  -0.19996
 Alpha virt. eigenvalues --   -0.11089  -0.06792  -0.04233  -0.02330   0.06287
 Alpha virt. eigenvalues --    0.07237   0.07621   0.09175   0.10352   0.11478
 Alpha virt. eigenvalues --    0.12663   0.16453   0.18685   0.21426   0.22472
 Alpha virt. eigenvalues --    0.23919   0.26063   0.29414   0.30423   0.35134
 Alpha virt. eigenvalues --    0.40065   0.43584   0.45947   0.46697   0.47151
 Alpha virt. eigenvalues --    0.47803   0.48274   0.49562   0.51318   0.51749
 Alpha virt. eigenvalues --    0.52994   0.53082   0.55061   0.56149   0.57105
 Alpha virt. eigenvalues --    0.58298   0.60987   0.61024   0.62151   0.63346
 Alpha virt. eigenvalues --    0.63979   0.65676   0.66180   0.68934   0.69462
 Alpha virt. eigenvalues --    0.70737   0.71981   0.73304   0.75722   0.77891
 Alpha virt. eigenvalues --    0.80601   0.83153   0.85111   0.90475   0.91665
 Alpha virt. eigenvalues --    0.93920   0.98590   0.99068   1.04533   1.06188
 Alpha virt. eigenvalues --    1.08457   1.10805   1.12174   1.15700   1.17616
 Alpha virt. eigenvalues --    1.21077   1.25126   1.28324   1.30707   1.31549
 Alpha virt. eigenvalues --    1.36989   1.40013   1.41712   1.44466   1.46666
 Alpha virt. eigenvalues --    1.49786   1.50491   1.51319   1.53214   1.55260
 Alpha virt. eigenvalues --    1.56583   1.59081   1.60270   1.62290   1.64126
 Alpha virt. eigenvalues --    1.65148   1.66977   1.69322   1.70583   1.72457
 Alpha virt. eigenvalues --    1.75185   1.76525   1.80446   1.81574   1.83997
 Alpha virt. eigenvalues --    1.86322   1.88665   1.89181   1.91676   1.92416
 Alpha virt. eigenvalues --    1.94658   1.95755   1.97707   1.98721   2.00831
 Alpha virt. eigenvalues --    2.01552   2.05408   2.05959   2.11022   2.11317
 Alpha virt. eigenvalues --    2.18238   2.22368   2.25635   2.28420   2.32110
 Alpha virt. eigenvalues --    2.37961   2.43907   2.44889   2.49163   2.54943
 Alpha virt. eigenvalues --    2.56917   2.61500   2.71645   2.76994
          Condensed to atoms (all electrons):
               1          2          3          4          5          6
     1  C    5.079812   0.434984  -0.005241  -0.078255   0.001836  -0.032512
     2  C    0.434984   5.049210  -0.001474   0.463644  -0.002675  -0.050701
     3  C   -0.005241  -0.001474   4.861783  -0.000913   0.440796  -0.042937
     4  C   -0.078255   0.463644  -0.000913   5.054491  -0.052074   0.358742
     5  C    0.001836  -0.002675   0.440796  -0.052074   4.891628   0.517065
     6  C   -0.032512  -0.050701  -0.042937   0.358742   0.517065   4.938741
     7  H    0.360469  -0.043707  -0.000513  -0.002918  -0.000461   0.005369
     8  H   -0.034896   0.351147  -0.001468  -0.023387  -0.000443   0.005383
     9  H    0.007591  -0.019594  -0.000105   0.336393   0.001692  -0.031968
    10  H   -0.000179  -0.000151   0.370288  -0.000184  -0.045723   0.003369
    11  H   -0.000328  -0.000183  -0.036596   0.002752   0.341047  -0.039262
    12  H   -0.000893   0.001131   0.005525  -0.039351  -0.026016   0.371432
    13  C    0.496999  -0.062467  -0.062480  -0.023647   0.006607  -0.002182
    14  H   -0.046306   0.011316   0.001848   0.001633  -0.000116   0.001648
    15  C   -0.060069  -0.020347   0.519888  -0.002023  -0.072764  -0.011935
    16  H   -0.012790   0.010435  -0.028712   0.002444   0.003531   0.000750
               7          8          9         10         11         12
     1  C    0.360469  -0.034896   0.007591  -0.000179  -0.000328  -0.000893
     2  C   -0.043707   0.351147  -0.019594  -0.000151  -0.000183   0.001131
     3  C   -0.000513  -0.001468  -0.000105   0.370288  -0.036596   0.005525
     4  C   -0.002918  -0.023387   0.336393  -0.000184   0.002752  -0.039351
     5  C   -0.000461  -0.000443   0.001692  -0.045723   0.341047  -0.026016
     6  C    0.005369   0.005383  -0.031968   0.003369  -0.039262   0.371432
     7  H    0.682783   0.006769  -0.000996   0.000048   0.000026   0.000617
     8  H    0.006769   0.632811  -0.007416   0.000186   0.000041  -0.000102
     9  H   -0.000996  -0.007416   0.648573   0.000078  -0.000207  -0.001226
    10  H    0.000048   0.000186   0.000078   0.686551  -0.003456  -0.000119
    11  H    0.000026   0.000041  -0.000207  -0.003456   0.686621  -0.000054
    12  H    0.000617  -0.000102  -0.001226  -0.000119  -0.000054   0.632799
    13  C   -0.017248   0.000706   0.001926   0.005837   0.001018  -0.000867
    14  H   -0.020754  -0.001150  -0.000142  -0.000209   0.000029   0.000430
    15  C    0.006095   0.004201   0.001107  -0.041039   0.011504   0.001466
    16  H    0.000536   0.004752   0.000686   0.001435  -0.000548   0.000140
              13         14         15         16
     1  C    0.496999  -0.046306  -0.060069  -0.012790
     2  C   -0.062467   0.011316  -0.020347   0.010435
     3  C   -0.062480   0.001848   0.519888  -0.028712
     4  C   -0.023647   0.001633  -0.002023   0.002444
     5  C    0.006607  -0.000116  -0.072764   0.003531
     6  C   -0.002182   0.001648  -0.011935   0.000750
     7  H   -0.017248  -0.020754   0.006095   0.000536
     8  H    0.000706  -0.001150   0.004201   0.004752
     9  H    0.001926  -0.000142   0.001107   0.000686
    10  H    0.005837  -0.000209  -0.041039   0.001435
    11  H    0.001018   0.000029   0.011504  -0.000548
    12  H   -0.000867   0.000430   0.001466   0.000140
    13  C    4.963215   0.359933   0.418184  -0.039711
    14  H    0.359933   0.680780  -0.033608   0.003769
    15  C    0.418184  -0.033608   4.996164   0.355946
    16  H   -0.039711   0.003769   0.355946   0.643196
 Mulliken charges:
               1
     1  C   -0.110222
     2  C   -0.120569
     3  C   -0.019688
     4  C    0.002654
     5  C   -0.003930
     6  C    0.008997
     7  H    0.023887
     8  H    0.062865
     9  H    0.063607
    10  H    0.023267
    11  H    0.037597
    12  H    0.055088
    13  C   -0.045824
    14  H    0.040898
    15  C   -0.072768
    16  H    0.054141
 Sum of Mulliken charges =   0.00000
 Mulliken charges with hydrogens summed into heavy atoms:
               1
     1  C   -0.086336
     2  C   -0.057704
     3  C    0.003580
     4  C    0.066261
     5  C    0.033667
     6  C    0.064085
    13  C   -0.004925
    15  C   -0.018628
 Electronic spatial extent (au):  <R**2>=            820.2466
 Charge=              0.0000 electrons
 Dipole moment (field-independent basis, Debye):
    X=             -0.3857    Y=              1.2787    Z=             -0.6277  Tot=              1.4758
 Quadrupole moment (field-independent basis, Debye-Ang):
   XX=            -50.1755   YY=            -50.8060   ZZ=            -46.3738
   XY=              0.3100   XZ=              0.7490   YZ=              2.3802
 Traceless Quadrupole moment (field-independent basis, Debye-Ang):
   XX=             -1.0571   YY=             -1.6875   ZZ=              2.7446
   XY=              0.3100   XZ=              0.7490   YZ=              2.3802
 Octapole moment (field-independent basis, Debye-Ang**2):
  XXX=            -11.9763  YYY=              8.9296  ZZZ=             -1.8206  XYY=             -0.3260
  XXY=              2.8258  XXZ=             -4.1838  XZZ=              4.4451  YZZ=              0.6510
  YYZ=              1.5693  XYZ=             -4.8265
 Hexadecapole moment (field-independent basis, Debye-Ang**3):
 XXXX=           -592.8776 YYYY=           -450.1485 ZZZZ=           -189.0321 XXXY=              0.8400
 XXXZ=              8.9107 YYYX=              1.2462 YYYZ=              4.6447 ZZZX=              3.6251
 ZZZY=             10.5260 XXYY=           -169.3674 XXZZ=           -121.4217 YYZZ=            -96.0776
 XXYZ=              3.6464 YYXZ=             -1.4557 ZZXY=              0.0029
 N-N= 3.185518609799D+02 E-N=-1.352139338808D+03  KE= 3.058718535295D+02
 Calling FoFJK, ICntrl=      2127 FMM=F ISym2X=0 I1Cent= 0 IOpClX= 0 NMat=1 NMatS=1 NMatT=0.
 ***** Axes restored to original set *****
 -------------------------------------------------------------------
 Center     Atomic                   Forces (Hartrees/Bohr)
 Number     Number              X              Y              Z
 -------------------------------------------------------------------
      1        6           0.015600155    0.061029149    0.048869139
      2        6          -0.039834386    0.094392353   -0.007705934
      3        6          -0.054558106   -0.094500515   -0.096147353
      4        6          -0.061416758   -0.064134818   -0.010283324
      5        6           0.080814599    0.010656568   -0.001585141
      6        6          -0.026538794    0.016071086   -0.056043598
      7        1          -0.008021998   -0.006706512   -0.021884969
      8        1           0.022727505   -0.024443479    0.017371373
      9        1           0.030546896    0.035031603    0.028724606
     10        1           0.018740135    0.019454308    0.040215281
     11        1          -0.027562877   -0.005558256    0.030755115
     12        1           0.029717768   -0.003643909   -0.009436229
     13        6           0.042501519   -0.113088874   -0.035276402
     14        1          -0.031262492    0.054733358   -0.000111927
     15        6           0.028234094    0.001584799    0.088973081
     16        1          -0.019687263    0.019123141   -0.016433718
 -------------------------------------------------------------------
 Cartesian Forces:  Max     0.113088874 RMS     0.044818066

 GradGradGradGradGradGradGradGradGradGradGradGradGradGradGradGradGradGrad
 Berny optimization.
 FormGI is forming the generalized inverse of G from B-inverse, IUseBI=4.
 Internal  Forces:  Max     0.065622032 RMS     0.024554612
 Search for a local minimum.
 Step number   1 out of a maximum of   82
 All quantities printed in internal units (Hartrees-Bohrs-Radians)
 Mixed Optimization -- RFO/linear search
 Second derivative matrix not updated -- first step.
 ITU=  0
     Eigenvalues ---    0.00413   0.00562   0.00582   0.00878   0.01038
     Eigenvalues ---    0.01212   0.01458   0.01801   0.02723   0.02846
     Eigenvalues ---    0.03224   0.03627   0.06817   0.08701   0.10301
     Eigenvalues ---    0.11639   0.11845   0.12759   0.13329   0.15288
     Eigenvalues ---    0.15802   0.17862   0.19299   0.21381   0.22268
     Eigenvalues ---    0.23146   0.26098   0.28486   0.29585   0.30164
     Eigenvalues ---    0.30608   0.30854   0.30927   0.31109   0.31138
     Eigenvalues ---    0.31138   0.31220   0.31220   0.31221   0.31497
     Eigenvalues ---    0.31497   0.39708
 RFO step:  Lambda=-1.44931633D-01 EMin= 4.12832151D-03
 Linear search not attempted -- first point.
 Maximum step size (   0.300) exceeded in Quadratic search.
    -- Step size scaled by   0.543
 Iteration  1 RMS(Cart)=  0.05600259 RMS(Int)=  0.00312390
 Iteration  2 RMS(Cart)=  0.00295027 RMS(Int)=  0.00112390
 Iteration  3 RMS(Cart)=  0.00001178 RMS(Int)=  0.00112387
 Iteration  4 RMS(Cart)=  0.00000005 RMS(Int)=  0.00112387
 Variable       Old X    -DE/DX   Delta X   Delta X   Delta X     New X
                                 (Linear)    (Quad)   (Total)
    R1        2.86127  -0.00603   0.00000  -0.00593  -0.00603   2.85524
    R2        2.12450  -0.01159   0.00000  -0.01380  -0.01380   2.11070
    R3        2.86127  -0.06049   0.00000  -0.07160  -0.07174   2.78953
    R4        2.86768  -0.05026   0.00000  -0.05996  -0.05971   2.80797
    R5        2.12294  -0.01054   0.00000  -0.01253  -0.01253   2.11041
    R6        2.70607   0.00158   0.00000   0.00127   0.00089   2.70696
    R7        2.12294  -0.01624   0.00000  -0.01930  -0.01930   2.10364
    R8        2.86768  -0.05672   0.00000  -0.06889  -0.06914   2.79853
    R9        2.95066  -0.06562   0.00000  -0.08707  -0.08669   2.86398
   R10        2.11775  -0.00271   0.00000  -0.00320  -0.00320   2.11455
   R11        2.86128  -0.05664   0.00000  -0.06853  -0.06854   2.79275
   R12        2.12450  -0.00513   0.00000  -0.00611  -0.00611   2.11840
   R13        2.12505  -0.01714   0.00000  -0.02041  -0.02041   2.10464
   R14        2.12293  -0.01036   0.00000  -0.01231  -0.01231   2.11062
   R15        2.86766  -0.02775   0.00000  -0.03375  -0.03356   2.83410
   R16        2.11774  -0.01084   0.00000  -0.01280  -0.01280   2.10495
    A1        1.89766   0.01460   0.00000   0.03238   0.03197   1.92962
    A2        2.04490  -0.00105   0.00000   0.00356   0.00246   2.04736
    A3        1.87749  -0.00226   0.00000   0.00290   0.00323   1.88073
    A4        2.01666   0.02213   0.00000   0.03798   0.03638   2.05304
    A5        1.89789   0.01759   0.00000   0.04738   0.04657   1.94447
    A6        1.91969  -0.01350   0.00000  -0.01193  -0.01312   1.90657
    A7        2.63063  -0.05472   0.00000  -0.09692  -0.09712   2.53351
    A8        2.00250   0.01439   0.00000   0.02551   0.02555   2.02805
    A9        1.64446   0.04086   0.00000   0.07329   0.07340   1.71786
   A10        2.21575  -0.00619   0.00000  -0.00609  -0.00517   2.21058
   A11        1.37221   0.05209   0.00000   0.10224   0.10356   1.47577
   A12        2.52902  -0.04556   0.00000  -0.08590  -0.08712   2.44190
   A13        2.14072  -0.01577   0.00000  -0.01460  -0.01512   2.12560
   A14        1.80410   0.02996   0.00000   0.06319   0.06292   1.86702
   A15        1.87749  -0.00008   0.00000   0.00892   0.00862   1.88611
   A16        2.03460   0.00733   0.00000   0.01397   0.01453   2.04914
   A17        2.32725  -0.02067   0.00000  -0.03722  -0.03780   2.28944
   A18        1.87625   0.01559   0.00000   0.03081   0.03055   1.90680
   A19        1.36147   0.04766   0.00000   0.10222   0.10477   1.46624
   A20        2.01673  -0.01485   0.00000  -0.01236  -0.01072   2.00601
   A21        2.59187  -0.02859   0.00000  -0.05816  -0.06082   2.53105
   A22        1.97175   0.00851   0.00000   0.02355   0.02351   1.99526
   A23        1.92317   0.00383   0.00000   0.01716   0.01534   1.93851
   A24        1.92317   0.01194   0.00000   0.03150   0.03037   1.95354
    D1       -1.47312  -0.00819   0.00000  -0.02328  -0.02197  -1.49509
    D2        2.64213  -0.02074   0.00000  -0.07365  -0.07425   2.56788
    D3        0.65896  -0.00001   0.00000   0.00970   0.01139   0.67034
    D4       -1.50898  -0.01256   0.00000  -0.04067  -0.04089  -1.54987
    D5       -3.00986  -0.01641   0.00000  -0.03472  -0.03194  -3.04180
    D6        0.65812  -0.00470   0.00000  -0.02114  -0.02229   0.63583
    D7       -0.86739   0.00040   0.00000   0.01314   0.01549  -0.85190
    D8        2.80059   0.01210   0.00000   0.02672   0.02514   2.82574
    D9        0.23825  -0.00263   0.00000  -0.01459  -0.01570   0.22255
   D10        2.91295  -0.01713   0.00000  -0.03098  -0.02870   2.88425
   D11        2.39478   0.02663   0.00000   0.06782   0.06614   2.46092
   D12       -1.21371   0.01213   0.00000   0.05143   0.05313  -1.16057
   D13       -1.96141  -0.01074   0.00000  -0.03854  -0.03791  -1.99932
   D14        0.15724   0.00543   0.00000   0.02045   0.02147   0.17871
   D15        1.02145   0.00435   0.00000   0.00138   0.00012   1.02158
   D16        3.14010   0.02051   0.00000   0.06038   0.05951  -3.08357
   D17        0.20310   0.00745   0.00000   0.01031   0.00944   0.21255
   D18       -1.95639  -0.01720   0.00000  -0.06086  -0.06209  -2.01848
   D19       -3.01607   0.00696   0.00000   0.01584   0.01744  -2.99864
   D20        1.10762  -0.01770   0.00000  -0.05534  -0.05409   1.05352
   D21       -1.43686   0.01129   0.00000   0.02907   0.02804  -1.40882
   D22        1.34048   0.02429   0.00000   0.06682   0.06512   1.40560
   D23        2.57961  -0.01934   0.00000  -0.05372  -0.05208   2.52753
   D24       -0.92624  -0.00634   0.00000  -0.01596  -0.01500  -0.94124
   D25        0.02908   0.00878   0.00000   0.01605   0.01613   0.04521
   D26       -2.83738   0.00605   0.00000   0.00076   0.00012  -2.83727
   D27       -2.05494  -0.02140   0.00000  -0.06944  -0.06913  -2.12406
   D28        1.36179  -0.02413   0.00000  -0.08474  -0.08514   1.27664
   D29       -1.90117   0.01425   0.00000   0.04297   0.04197  -1.85920
   D30        0.25832   0.03444   0.00000   0.10625   0.10582   0.36414
   D31        2.46500  -0.03120   0.00000  -0.09517  -0.09399   2.37101
   D32       -1.65869  -0.01102   0.00000  -0.03189  -0.03014  -1.68884
         Item               Value     Threshold  Converged?
 Maximum Force            0.065622     0.000450     NO 
 RMS     Force            0.024555     0.000300     NO 
 Maximum Displacement     0.169495     0.001800     NO 
 RMS     Displacement     0.055257     0.001200     NO 
 Predicted change in Energy=-6.912860D-02
 GradGradGradGradGradGradGradGradGradGradGradGradGradGradGradGradGradGrad

                          Input orientation:                          
 ---------------------------------------------------------------------
 Center     Atomic      Atomic             Coordinates (Angstroms)
 Number     Number       Type             X           Y           Z
 ---------------------------------------------------------------------
      1          6           0       -1.328408    1.157266    0.006677
      2          6           0        0.182233    1.182758    0.021418
      3          6           0       -0.695964    4.578322   -0.016613
      4          6           0        0.845801    2.233095    0.836533
      5          6           0       -0.550014    4.306002    1.382131
      6          6           0        0.189574    3.124061    1.872120
      7          1           0       -1.719322    0.572634    0.874396
      8          1           0        0.599755    1.202092   -1.014200
      9          1           0        1.763000    1.605855    0.704565
     10          1           0       -0.439386    5.279092   -0.842628
     11          1           0       -0.094561    5.218555    1.847390
     12          1           0       -0.083632    2.934609    2.935066
     13          6           0       -2.027449    2.457281   -0.011873
     14          1           0       -2.946763    1.832117    0.095281
     15          6           0       -1.355225    3.525150   -0.822424
     16          1           0       -0.652833    3.097115   -1.573543
 ---------------------------------------------------------------------
                    Distance matrix (angstroms):
                    1          2          3          4          5
     1  C    0.000000
     2  C    1.510928   0.000000
     3  C    3.479103   3.507497   0.000000
     4  C    2.563836   1.485915   2.933426   0.000000
     5  C    3.523111   3.484591   1.432461   2.557913   0.000000
     6  C    3.106835   2.682127   2.542905   1.515551   1.477858
     7  H    1.116935   2.171574   4.229267   3.055883   3.945011
     8  H    2.182203   1.116783   3.751399   2.132772   4.086395
     9  H    3.200794   1.773281   3.924559   1.118972   3.619381
    10  H    4.301294   4.232368   1.113198   3.708016   2.430781
    11  H    4.626518   4.438293   2.060605   3.289238   1.121007
    12  H    3.644705   3.410133   3.433534   2.399960   2.123637
    13  C    1.476158   2.551120   2.504334   3.004267   2.746603
    14  H    1.755662   3.196520   3.552501   3.885072   3.677023
    15  C    2.508985   2.926200   1.480921   3.044021   2.473491
    16  H    2.591624   2.627927   2.149387   2.966631   3.194994
                    6          7          8          9         10
     6  C    0.000000
     7  H    3.339029   0.000000
     8  H    3.491855   3.056327   0.000000
     9  H    2.478669   3.636338   2.114312   0.000000
    10  H    3.522727   5.170798   4.210840   4.553787   0.000000
    11  H    2.113824   5.017086   4.980235   4.219974   2.712704
    12  H    1.113727   3.535643   4.366387   3.186027   4.460284
    13  C    2.984831   2.105305   3.079344   3.950407   3.342860
    14  H    3.829215   1.923520   3.769041   4.754397   4.364430
    15  C    3.131747   3.424780   3.042256   3.967205   1.978757
    16  H    3.547248   3.674617   2.339434   3.640039   2.311021
                   11         12         13         14         15
    11  H    0.000000
    12  H    2.529737   0.000000
    13  C    3.849357   3.562403   0.000000
    14  H    4.761608   4.180596   1.116893   0.000000
    15  C    3.403645   4.010538   1.499741   2.498307   0.000000
    16  H    4.063860   4.547302   2.176642   3.106012   1.113889
                   16
    16  H    0.000000
 Stoichiometry    C8H8
 Framework group  C1[X(C8H8)]
 Deg. of freedom    42
 Full point group                 C1      NOp   1
 Largest Abelian subgroup         C1      NOp   1
 Largest concise Abelian subgroup C1      NOp   1
                         Standard orientation:                         
 ---------------------------------------------------------------------
 Center     Atomic      Atomic             Coordinates (Angstroms)
 Number     Number       Type             X           Y           Z
 ---------------------------------------------------------------------
      1          6           0        1.732795   -0.499119    0.443581
      2          6           0        1.626099    0.644617   -0.537942
      3          6           0       -1.611967   -0.702732   -0.491976
      4          6           0        0.378593    1.451734   -0.522632
      5          6           0       -1.689250    0.337407    0.489901
      6          6           0       -0.698432    1.432613    0.543457
      7          1           0        2.112967   -0.136085    1.429086
      8          1           0        1.832792    0.306437   -1.582028
      9          1           0        0.970696    2.182938   -1.128316
     10          1           0       -2.107735   -1.163556   -1.375756
     11          1           0       -2.708850    0.795005    0.402294
     12          1           0       -0.754175    1.929903    1.538436
     13          6           0        0.512874   -1.291131    0.695680
     14          1           0        1.141286   -1.795656    1.468987
     15          6           0       -0.364155   -1.500214   -0.502788
     16          1           0        0.193677   -1.358035   -1.456391
 ---------------------------------------------------------------------
 Rotational constants (GHZ):           2.9755502           2.4059073           1.7066243
 Standard basis: CC-pVDZ (5D, 7F)
 There are   160 symmetry adapted cartesian basis functions of A   symmetry.
 There are   152 symmetry adapted basis functions of A   symmetry.
   152 basis functions,   320 primitive gaussians,   160 cartesian basis functions
    28 alpha electrons       28 beta electrons
       nuclear repulsion energy       322.0833830087 Hartrees.
 NAtoms=   16 NActive=   16 NUniq=   16 SFac= 1.00D+00 NAtFMM=   60 NAOKFM=F Big=F
 Integral buffers will be    131072 words long.
 Raffenetti 2 integral format.
 Two-electron integral symmetry is turned on.
 One-electron integrals computed using PRISM.
 NBasis=   152 RedAO= T EigKep=  1.56D-03  NBF=   152
 NBsUse=   152 1.00D-06 EigRej= -1.00D+00 NBFU=   152
 Initial guess from the checkpoint file:  "COT-boat_opt.chk"
 B after Tr=     0.000000    0.000000    0.000000
         Rot=    0.999512   -0.010416   -0.003776   -0.029194 Ang=  -3.58 deg.
 ExpMin= 1.22D-01 ExpMax= 6.67D+03 ExpMxC= 2.28D+02 IAcc=2 IRadAn=         4 AccDes= 0.00D+00
 Harris functional with IExCor=  402 and IRadAn=       4 diagonalized for initial guess.
 HarFok:  IExCor=  402 AccDes= 0.00D+00 IRadAn=         4 IDoV= 1 UseB2=F ITyADJ=14
 ICtDFT=  3500011 ScaDFX=  1.000000  1.000000  1.000000  1.000000
 FoFCou: FMM=F IPFlag=           0 FMFlag=      100000 FMFlg1=           0
         NFxFlg=           0 DoJE=T BraDBF=F KetDBF=T FulRan=T
         wScrn=  0.000000 ICntrl=       500 IOpCl=  0 I1Cent=   200000004 NGrid=           0
         NMat0=    1 NMatS0=      1 NMatT0=    0 NMatD0=    1 NMtDS0=    0 NMtDT0=    0
 Petite list used in FoFCou.
 Requested convergence on RMS density matrix=1.00D-08 within 128 cycles.
 Requested convergence on MAX density matrix=1.00D-06.
 Requested convergence on             energy=1.00D-06.
 No special actions if energy rises.
 Integral accuracy reduced to 1.0D-05 until final iterations.
 Initial convergence to 1.0D-05 achieved.  Increase integral accuracy.
 SCF Done:  E(RB3LYP) =  -309.304289536     A.U. after   16 cycles
            NFock= 16  Conv=0.78D-08     -V/T= 2.0101
 Calling FoFJK, ICntrl=      2127 FMM=F ISym2X=0 I1Cent= 0 IOpClX= 0 NMat=1 NMatS=1 NMatT=0.
 ***** Axes restored to original set *****
 -------------------------------------------------------------------
 Center     Atomic                   Forces (Hartrees/Bohr)
 Number     Number              X              Y              Z
 -------------------------------------------------------------------
      1        6           0.012741457    0.059927047    0.048981605
      2        6          -0.030164678    0.086438462   -0.010194875
      3        6          -0.049900297   -0.077641155   -0.082765134
      4        6          -0.049811009   -0.074699812   -0.011624716
      5        6           0.071604845    0.013238209   -0.000339093
      6        6          -0.029207118    0.015573539   -0.042851511
      7        1          -0.006202845   -0.010929776   -0.020435599
      8        1           0.018217316   -0.026922217    0.014621070
      9        1           0.022608629    0.036948216    0.023827561
     10        1           0.019101254    0.016025188    0.032789400
     11        1          -0.028115785   -0.005014927    0.025396935
     12        1           0.028274818   -0.000827284   -0.004036490
     13        6           0.037834069   -0.111832056   -0.033740773
     14        1          -0.025580275    0.051469966    0.001491627
     15        6           0.028086375    0.010888265    0.075987688
     16        1          -0.019486755    0.017358334   -0.017107696
 -------------------------------------------------------------------
 Cartesian Forces:  Max     0.111832056 RMS     0.041012833

 GradGradGradGradGradGradGradGradGradGradGradGradGradGradGradGradGradGrad
 Berny optimization.
 Using GEDIIS/GDIIS optimizer.
 FormGI is forming the generalized inverse of G from B-inverse, IUseBI=4.
 Internal  Forces:  Max     0.051069040 RMS     0.020907665
 Search for a local minimum.
 Step number   2 out of a maximum of   82
 All quantities printed in internal units (Hartrees-Bohrs-Radians)
 Mixed Optimization -- RFO/linear search
 Update second derivatives using D2CorX and points    1    2
 DE= -7.39D-02 DEPred=-6.91D-02 R= 1.07D+00
 TightC=F SS=  1.41D+00  RLast= 4.05D-01 DXNew= 5.0454D-01 1.2158D+00
 Trust test= 1.07D+00 RLast= 4.05D-01 DXMaxT set to 5.05D-01
 ITU=  1  0
 Use linear search instead of GDIIS.
 Linear search step of   0.603 exceeds DXMaxT=   0.505 but not scaled.
 Quartic linear search produced a step of  2.00000.
 Iteration  1 RMS(Cart)=  0.10751888 RMS(Int)=  0.01229016
 Iteration  2 RMS(Cart)=  0.01109798 RMS(Int)=  0.00641713
 Iteration  3 RMS(Cart)=  0.00019252 RMS(Int)=  0.00641544
 Iteration  4 RMS(Cart)=  0.00000448 RMS(Int)=  0.00641543
 Iteration  5 RMS(Cart)=  0.00000009 RMS(Int)=  0.00641543
 Variable       Old X    -DE/DX   Delta X   Delta X   Delta X     New X
                                 (Linear)    (Quad)   (Total)
    R1        2.85524  -0.00626  -0.01205   0.00000  -0.01294   2.84230
    R2        2.11070  -0.00798  -0.02760   0.00000  -0.02760   2.08310
    R3        2.78953  -0.05107  -0.14348   0.00000  -0.14483   2.64470
    R4        2.80797  -0.04438  -0.11942   0.00000  -0.11753   2.69044
    R5        2.11041  -0.00721  -0.02505   0.00000  -0.02505   2.08536
    R6        2.70696   0.00521   0.00179   0.00000  -0.00076   2.70620
    R7        2.10364  -0.00984  -0.03860   0.00000  -0.03860   2.06504
    R8        2.79853  -0.04912  -0.13828   0.00000  -0.14015   2.65838
    R9        2.86398  -0.04414  -0.17337   0.00000  -0.17029   2.69368
   R10        2.11455  -0.00499  -0.00639   0.00000  -0.00639   2.10816
   R11        2.79275  -0.04326  -0.13707   0.00000  -0.13657   2.65618
   R12        2.11840  -0.00497  -0.01221   0.00000  -0.01221   2.10618
   R13        2.10464  -0.01065  -0.04083   0.00000  -0.04083   2.06381
   R14        2.11062  -0.00761  -0.02461   0.00000  -0.02461   2.08601
   R15        2.83410  -0.01504  -0.06712   0.00000  -0.06594   2.76816
   R16        2.10495  -0.00742  -0.02560   0.00000  -0.02560   2.07935
    A1        1.92962   0.01091   0.06393   0.00000   0.06098   1.99060
    A2        2.04736   0.00124   0.00493   0.00000  -0.00064   2.04672
    A3        1.88073  -0.00005   0.00646   0.00000   0.00823   1.88895
    A4        2.05304   0.01331   0.07276   0.00000   0.06362   2.11666
    A5        1.94447   0.01425   0.09315   0.00000   0.08858   2.03305
    A6        1.90657  -0.00776  -0.02625   0.00000  -0.03302   1.87355
    A7        2.53351  -0.04782  -0.19425   0.00000  -0.19482   2.33869
    A8        2.02805   0.01335   0.05110   0.00000   0.05047   2.07852
    A9        1.71786   0.03490   0.14681   0.00000   0.14709   1.86495
   A10        2.21058  -0.00086  -0.01033   0.00000  -0.00685   2.20373
   A11        1.47577   0.04664   0.20713   0.00000   0.21209   1.68786
   A12        2.44190  -0.04261  -0.17424   0.00000  -0.17950   2.26241
   A13        2.12560  -0.00967  -0.03024   0.00000  -0.03490   2.09071
   A14        1.86702   0.02123   0.12584   0.00000   0.12474   1.99175
   A15        1.88611   0.00330   0.01725   0.00000   0.01462   1.90073
   A16        2.04914   0.00829   0.02907   0.00000   0.03223   2.08136
   A17        2.28944  -0.01897  -0.07561   0.00000  -0.07878   2.21066
   A18        1.90680   0.01287   0.06110   0.00000   0.05944   1.96624
   A19        1.46624   0.04172   0.20954   0.00000   0.22193   1.68816
   A20        2.00601  -0.00249  -0.02144   0.00000  -0.01523   1.99078
   A21        2.53105  -0.03150  -0.12164   0.00000  -0.13539   2.39566
   A22        1.99526   0.00534   0.04702   0.00000   0.04608   2.04133
   A23        1.93851   0.00540   0.03068   0.00000   0.01966   1.95817
   A24        1.95354   0.00856   0.06074   0.00000   0.05471   2.00826
    D1       -1.49509  -0.00898  -0.04394   0.00000  -0.03619  -1.53128
    D2        2.56788  -0.02328  -0.14850   0.00000  -0.15159   2.41629
    D3        0.67034   0.00151   0.02277   0.00000   0.03213   0.70248
    D4       -1.54987  -0.01280  -0.08179   0.00000  -0.08326  -1.63313
    D5       -3.04180  -0.01444  -0.06389   0.00000  -0.04571  -3.08751
    D6        0.63583  -0.00440  -0.04459   0.00000  -0.05130   0.58453
    D7       -0.85190   0.00128   0.03098   0.00000   0.04610  -0.80579
    D8        2.82574   0.01132   0.05028   0.00000   0.04050   2.86624
    D9        0.22255  -0.00274  -0.03140   0.00000  -0.03670   0.18586
   D10        2.88425  -0.01158  -0.05740   0.00000  -0.04597   2.83829
   D11        2.46092   0.02157   0.13227   0.00000   0.12346   2.58437
   D12       -1.16057   0.01273   0.10627   0.00000   0.11419  -1.04639
   D13       -1.99932  -0.01105  -0.07583   0.00000  -0.07079  -2.07011
   D14        0.17871   0.00641   0.04294   0.00000   0.04989   0.22860
   D15        1.02158  -0.00018   0.00025   0.00000  -0.00619   1.01539
   D16       -3.08357   0.01729   0.11901   0.00000   0.11449  -2.96908
   D17        0.21255   0.00220   0.01889   0.00000   0.01628   0.22883
   D18       -2.01848  -0.01880  -0.12417   0.00000  -0.12852  -2.14700
   D19       -2.99864   0.00330   0.03488   0.00000   0.04372  -2.95491
   D20        1.05352  -0.01770  -0.10819   0.00000  -0.10108   0.95244
   D21       -1.40882   0.01117   0.05607   0.00000   0.04886  -1.35997
   D22        1.40560   0.02348   0.13023   0.00000   0.11965   1.52525
   D23        2.52753  -0.01857  -0.10416   0.00000  -0.09501   2.43252
   D24       -0.94124  -0.00626  -0.03000   0.00000  -0.02421  -0.96545
   D25        0.04521   0.00512   0.03227   0.00000   0.03290   0.07811
   D26       -2.83727   0.00110   0.00023   0.00000  -0.00396  -2.84123
   D27       -2.12406  -0.02059  -0.13825   0.00000  -0.13528  -2.25934
   D28        1.27664  -0.02462  -0.17029   0.00000  -0.17214   1.10450
   D29       -1.85920   0.01434   0.08394   0.00000   0.07663  -1.78257
   D30        0.36414   0.03388   0.21163   0.00000   0.20759   0.57172
   D31        2.37101  -0.03103  -0.18798   0.00000  -0.17842   2.19259
   D32       -1.68884  -0.01148  -0.06029   0.00000  -0.04746  -1.73630
         Item               Value     Threshold  Converged?
 Maximum Force            0.051069     0.000450     NO 
 RMS     Force            0.020908     0.000300     NO 
 Maximum Displacement     0.309053     0.001800     NO 
 RMS     Displacement     0.106684     0.001200     NO 
 Predicted change in Energy=-1.172521D-01
 GradGradGradGradGradGradGradGradGradGradGradGradGradGradGradGradGradGrad

                          Input orientation:                          
 ---------------------------------------------------------------------
 Center     Atomic      Atomic             Coordinates (Angstroms)
 Number     Number       Type             X           Y           Z
 ---------------------------------------------------------------------
      1          6           0       -1.347095    1.193598    0.023248
      2          6           0        0.154729    1.268226    0.058157
      3          6           0       -0.705512    4.450633   -0.049269
      4          6           0        0.827857    2.258669    0.828161
      5          6           0       -0.491160    4.246545    1.351870
      6          6           0        0.233943    3.125495    1.791358
      7          1           0       -1.785251    0.579859    0.827281
      8          1           0        0.673688    1.197731   -0.913173
      9          1           0        1.825240    1.759042    0.839846
     10          1           0       -0.425513    5.238179   -0.753202
     11          1           0       -0.123432    5.149112    1.892571
     12          1           0        0.079912    2.914062    2.851688
     13          6           0       -2.048025    2.403518   -0.035376
     14          1           0       -3.061332    1.968373    0.013471
     15          6           0       -1.363688    3.454148   -0.792761
     16          1           0       -0.757553    3.098813   -1.639574
 ---------------------------------------------------------------------
                    Distance matrix (angstroms):
                    1          2          3          4          5
     1  C    0.000000
     2  C    1.504082   0.000000
     3  C    3.320416   3.298373   0.000000
     4  C    2.551994   1.423722   2.815281   0.000000
     5  C    3.437782   3.310778   1.432057   2.442485   0.000000
     6  C    3.059104   2.541595   2.454887   1.425436   1.405588
     7  H    1.102328   2.197482   4.113036   3.105920   3.923577
     8  H    2.227210   1.103526   3.637292   2.044896   3.972727
     9  H    3.324194   1.908545   3.799986   1.115588   3.437376
    10  H    4.220286   4.093349   1.092772   3.598490   2.327869
    11  H    4.542886   4.301596   2.144163   3.223753   1.114544
    12  H    3.605055   3.243176   3.375424   2.254689   2.085926
    13  C    1.399516   2.479872   2.448105   3.006223   2.782990
    14  H    1.881218   3.291695   3.422782   3.984191   3.686077
    15  C    2.403379   2.794264   1.406755   2.976479   2.447170
    16  H    2.596609   2.658119   2.087869   3.051079   3.215119
                    6          7          8          9         10
     6  C    0.000000
     7  H    3.389225   0.000000
     8  H    3.350244   3.075278   0.000000
     9  H    2.303214   3.798194   2.171225   0.000000
    10  H    3.372403   5.103602   4.190352   4.439379   0.000000
    11  H    2.057423   4.977405   4.911315   4.049461   2.664452
    12  H    1.092122   3.609094   4.180017   2.903059   4.318820
    13  C    3.010911   2.034443   3.103574   4.022878   3.344118
    14  H    3.919011   2.053933   3.924657   4.960373   4.269304
    15  C    3.055832   3.326228   3.042502   3.963339   2.016060
    16  H    3.571424   3.672420   2.488015   3.822738   2.339399
                   11         12         13         14         15
    11  H    0.000000
    12  H    2.440635   0.000000
    13  C    3.867729   3.622694   0.000000
    14  H    4.720103   4.337882   1.103869   0.000000
    15  C    3.409127   3.956979   1.464847   2.395732   0.000000
    16  H    4.133024   4.572408   2.173064   3.052515   1.100343
                   16
    16  H    0.000000
 Stoichiometry    C8H8
 Framework group  C1[X(C8H8)]
 Deg. of freedom    42
 Full point group                 C1      NOp   1
 Largest Abelian subgroup         C1      NOp   1
 Largest concise Abelian subgroup C1      NOp   1
                         Standard orientation:                         
 ---------------------------------------------------------------------
 Center     Atomic      Atomic             Coordinates (Angstroms)
 Number     Number       Type             X           Y           Z
 ---------------------------------------------------------------------
      1          6           0        1.756283   -0.203586    0.408463
      2          6           0        1.361692    0.920334   -0.509886
      3          6           0       -1.354307   -0.950969   -0.480813
      4          6           0        0.055734    1.485711   -0.467370
      5          6           0       -1.671090    0.049990    0.493105
      6          6           0       -0.934527    1.246576    0.529658
      7          1           0        2.149418    0.129443    1.382970
      8          1           0        1.636807    0.807215   -1.572565
      9          1           0        0.303317    2.426748   -1.012980
     10          1           0       -1.907284   -1.412176   -1.302796
     11          1           0       -2.756907    0.292136    0.560740
     12          1           0       -1.055563    1.786507    1.471228
     13          6           0        0.807791   -1.206592    0.638654
     14          1           0        1.404699   -1.784643    1.365348
     15          6           0       -0.054616   -1.488396   -0.511396
     16          1           0        0.423748   -1.363638   -1.494432
 ---------------------------------------------------------------------
 Rotational constants (GHZ):           3.0384178           2.6067334           1.7859373
 Standard basis: CC-pVDZ (5D, 7F)
 There are   160 symmetry adapted cartesian basis functions of A   symmetry.
 There are   152 symmetry adapted basis functions of A   symmetry.
   152 basis functions,   320 primitive gaussians,   160 cartesian basis functions
    28 alpha electrons       28 beta electrons
       nuclear repulsion energy       330.2005147560 Hartrees.
 NAtoms=   16 NActive=   16 NUniq=   16 SFac= 1.00D+00 NAtFMM=   60 NAOKFM=F Big=F
 Integral buffers will be    131072 words long.
 Raffenetti 2 integral format.
 Two-electron integral symmetry is turned on.
 One-electron integrals computed using PRISM.
 NBasis=   152 RedAO= T EigKep=  1.21D-03  NBF=   152
 NBsUse=   152 1.00D-06 EigRej= -1.00D+00 NBFU=   152
 Initial guess from the checkpoint file:  "COT-boat_opt.chk"
 B after Tr=     0.000000    0.000000    0.000000
         Rot=    0.995292   -0.014339   -0.008424   -0.095483 Ang= -11.12 deg.
 ExpMin= 1.22D-01 ExpMax= 6.67D+03 ExpMxC= 2.28D+02 IAcc=2 IRadAn=         4 AccDes= 0.00D+00
 Harris functional with IExCor=  402 and IRadAn=       4 diagonalized for initial guess.
 HarFok:  IExCor=  402 AccDes= 0.00D+00 IRadAn=         4 IDoV= 1 UseB2=F ITyADJ=14
 ICtDFT=  3500011 ScaDFX=  1.000000  1.000000  1.000000  1.000000
 FoFCou: FMM=F IPFlag=           0 FMFlag=      100000 FMFlg1=           0
         NFxFlg=           0 DoJE=T BraDBF=F KetDBF=T FulRan=T
         wScrn=  0.000000 ICntrl=       500 IOpCl=  0 I1Cent=   200000004 NGrid=           0
         NMat0=    1 NMatS0=      1 NMatT0=    0 NMatD0=    1 NMtDS0=    0 NMtDT0=    0
 Petite list used in FoFCou.
 Requested convergence on RMS density matrix=1.00D-08 within 128 cycles.
 Requested convergence on MAX density matrix=1.00D-06.
 Requested convergence on             energy=1.00D-06.
 No special actions if energy rises.
 Integral accuracy reduced to 1.0D-05 until final iterations.
 Initial convergence to 1.0D-05 achieved.  Increase integral accuracy.
 SCF Done:  E(RB3LYP) =  -309.413799357     A.U. after   15 cycles
            NFock= 15  Conv=0.62D-08     -V/T= 2.0077
 Calling FoFJK, ICntrl=      2127 FMM=F ISym2X=0 I1Cent= 0 IOpClX= 0 NMat=1 NMatS=1 NMatT=0.
 ***** Axes restored to original set *****
 -------------------------------------------------------------------
 Center     Atomic                   Forces (Hartrees/Bohr)
 Number     Number              X              Y              Z
 -------------------------------------------------------------------
      1        6           0.014112846    0.040292273    0.049113162
      2        6          -0.012294764    0.060229591   -0.019554205
      3        6          -0.034643195   -0.032217778   -0.046738863
      4        6          -0.016841389   -0.090836212   -0.015134627
      5        6           0.045165722    0.026895786   -0.000217668
      6        6          -0.033309933    0.017034492   -0.001334446
      7        1          -0.002848202   -0.019952015   -0.015898267
      8        1           0.009772372   -0.031468668    0.006967981
      9        1           0.008612301    0.032042599    0.009287943
     10        1           0.019726753    0.012217325    0.015042121
     11        1          -0.028571529   -0.002482915    0.015189215
     12        1           0.025909955    0.003602175    0.008949735
     13        6           0.016891967   -0.087639086   -0.033119121
     14        1          -0.015214891    0.039717089    0.005400661
     15        6           0.022945280    0.018904103    0.042222394
     16        1          -0.019413293    0.013661241   -0.020176014
 -------------------------------------------------------------------
 Cartesian Forces:  Max     0.090836212 RMS     0.030905816

 GradGradGradGradGradGradGradGradGradGradGradGradGradGradGradGradGradGrad
 Berny optimization.
 Using GEDIIS/GDIIS optimizer.
 FormGI is forming the generalized inverse of G from B-inverse, IUseBI=4.
 Internal  Forces:  Max     0.033443820 RMS     0.014280773
 Search for a local minimum.
 Step number   3 out of a maximum of   82
 All quantities printed in internal units (Hartrees-Bohrs-Radians)
 Mixed Optimization -- RFO/linear search
 Update second derivatives using D2CorX and points    2    3
 ITU=  0  1  0
 Use linear search instead of GDIIS.
 Linear search step of   0.536 exceeds DXMaxT=   0.505 but not scaled.
 Quartic linear search produced a step of  0.87863.
 Iteration  1 RMS(Cart)=  0.09233988 RMS(Int)=  0.01019699
 Iteration  2 RMS(Cart)=  0.00931429 RMS(Int)=  0.00655763
 Iteration  3 RMS(Cart)=  0.00007614 RMS(Int)=  0.00655726
 Iteration  4 RMS(Cart)=  0.00000173 RMS(Int)=  0.00655726
 Iteration  5 RMS(Cart)=  0.00000004 RMS(Int)=  0.00655726
 Variable       Old X    -DE/DX   Delta X   Delta X   Delta X     New X
                                 (Linear)    (Quad)   (Total)
    R1        2.84230  -0.00422  -0.01137   0.00000  -0.01265   2.82966
    R2        2.08310   0.00064  -0.02425   0.00000  -0.02425   2.05885
    R3        2.64470  -0.01239  -0.12726   0.00000  -0.12937   2.51533
    R4        2.69044  -0.02104  -0.10326   0.00000  -0.10088   2.58956
    R5        2.08536   0.00047  -0.02201   0.00000  -0.02201   2.06335
    R6        2.70620   0.01425  -0.00067   0.00000  -0.00361   2.70259
    R7        2.06504   0.00417  -0.03392   0.00000  -0.03392   2.03112
    R8        2.65838  -0.01692  -0.12314   0.00000  -0.12551   2.53287
    R9        2.69368   0.01907  -0.14962   0.00000  -0.14552   2.54816
   R10        2.10816  -0.00655  -0.00562   0.00000  -0.00562   2.10254
   R11        2.65618   0.00004  -0.11999   0.00000  -0.11874   2.53744
   R12        2.10618  -0.00407  -0.01073   0.00000  -0.01073   2.09545
   R13        2.06381   0.00434  -0.03587   0.00000  -0.03587   2.02794
   R14        2.08601  -0.00145  -0.02163   0.00000  -0.02163   2.06438
   R15        2.76816   0.01254  -0.05794   0.00000  -0.05680   2.71136
   R16        2.07935   0.00042  -0.02249   0.00000  -0.02249   2.05686
    A1        1.99060   0.00257   0.05358   0.00000   0.04996   2.04056
    A2        2.04672   0.00616  -0.00056   0.00000  -0.00537   2.04135
    A3        1.88895   0.00423   0.00723   0.00000   0.00872   1.89767
    A4        2.11666  -0.00279   0.05590   0.00000   0.04657   2.16323
    A5        2.03305   0.00645   0.07783   0.00000   0.07349   2.10654
    A6        1.87355   0.00630  -0.02901   0.00000  -0.03602   1.83753
    A7        2.33869  -0.03052  -0.17118   0.00000  -0.17150   2.16719
    A8        2.07852   0.00834   0.04435   0.00000   0.04340   2.12191
    A9        1.86495   0.02224   0.12924   0.00000   0.12909   1.99404
   A10        2.20373   0.00676  -0.00602   0.00000  -0.00331   2.20042
   A11        1.68786   0.02976   0.18635   0.00000   0.18862   1.87649
   A12        2.26241  -0.02992  -0.15771   0.00000  -0.16224   2.10017
   A13        2.09071   0.00303  -0.03066   0.00000  -0.03723   2.05348
   A14        1.99175   0.00275   0.10960   0.00000   0.10882   2.10057
   A15        1.90073   0.00918   0.01285   0.00000   0.00890   1.90963
   A16        2.08136   0.00953   0.02832   0.00000   0.03126   2.11263
   A17        2.21066  -0.01495  -0.06922   0.00000  -0.07235   2.13831
   A18        1.96624   0.00696   0.05223   0.00000   0.05046   2.01670
   A19        1.68816   0.02599   0.19499   0.00000   0.20466   1.89282
   A20        1.99078   0.02065  -0.01338   0.00000  -0.01055   1.98023
   A21        2.39566  -0.03344  -0.11896   0.00000  -0.13296   2.26270
   A22        2.04133  -0.00057   0.04049   0.00000   0.03893   2.08026
   A23        1.95817   0.00857   0.01728   0.00000   0.00528   1.96346
   A24        2.00826   0.00285   0.04807   0.00000   0.04232   2.05058
    D1       -1.53128  -0.01083  -0.03180   0.00000  -0.02363  -1.55492
    D2        2.41629  -0.02669  -0.13319   0.00000  -0.13623   2.28006
    D3        0.70248   0.00399   0.02823   0.00000   0.03720   0.73968
    D4       -1.63313  -0.01186  -0.07316   0.00000  -0.07540  -1.70853
    D5       -3.08751  -0.00758  -0.04016   0.00000  -0.01997  -3.10748
    D6        0.58453  -0.00681  -0.04508   0.00000  -0.05120   0.53333
    D7       -0.80579   0.00558   0.04051   0.00000   0.05680  -0.74899
    D8        2.86624   0.00636   0.03559   0.00000   0.02557   2.89181
    D9        0.18586  -0.00372  -0.03224   0.00000  -0.03634   0.14952
   D10        2.83829  -0.00092  -0.04039   0.00000  -0.03129   2.80700
   D11        2.58437   0.01140   0.10847   0.00000   0.10055   2.68492
   D12       -1.04639   0.01420   0.10033   0.00000   0.10560  -0.94078
   D13       -2.07011  -0.01357  -0.06220   0.00000  -0.05593  -2.12604
   D14        0.22860   0.00770   0.04383   0.00000   0.05183   0.28043
   D15        1.01539  -0.01086  -0.00544   0.00000  -0.01058   1.00481
   D16       -2.96908   0.01041   0.10060   0.00000   0.09718  -2.87190
   D17        0.22883  -0.00589   0.01430   0.00000   0.01447   0.24330
   D18       -2.14700  -0.01969  -0.11292   0.00000  -0.11393  -2.26093
   D19       -2.95491  -0.00538   0.03842   0.00000   0.04687  -2.90804
   D20        0.95244  -0.01918  -0.08881   0.00000  -0.08153   0.87091
   D21       -1.35997   0.01127   0.04293   0.00000   0.03501  -1.32495
   D22        1.52525   0.02033   0.10513   0.00000   0.09437   1.61962
   D23        2.43252  -0.01427  -0.08348   0.00000  -0.07577   2.35675
   D24       -0.96545  -0.00521  -0.02127   0.00000  -0.01641  -0.98186
   D25        0.07811  -0.00280   0.02891   0.00000   0.02928   0.10739
   D26       -2.84123  -0.00744  -0.00348   0.00000  -0.00898  -2.85021
   D27       -2.25934  -0.02049  -0.11886   0.00000  -0.11421  -2.37355
   D28        1.10450  -0.02513  -0.15125   0.00000  -0.15247   0.95203
   D29       -1.78257   0.01478   0.06733   0.00000   0.05846  -1.72412
   D30        0.57172   0.03136   0.18239   0.00000   0.17731   0.74904
   D31        2.19259  -0.02700  -0.15676   0.00000  -0.14437   2.04822
   D32       -1.73630  -0.01042  -0.04170   0.00000  -0.02551  -1.76181
         Item               Value     Threshold  Converged?
 Maximum Force            0.033444     0.000450     NO 
 RMS     Force            0.014281     0.000300     NO 
 Maximum Displacement     0.305496     0.001800     NO 
 RMS     Displacement     0.091832     0.001200     NO 
 Predicted change in Energy=-4.553787D-02
 GradGradGradGradGradGradGradGradGradGradGradGradGradGradGradGradGradGrad

                          Input orientation:                          
 ---------------------------------------------------------------------
 Center     Atomic      Atomic             Coordinates (Angstroms)
 Number     Number       Type             X           Y           Z
 ---------------------------------------------------------------------
      1          6           0       -1.363343    1.220334    0.040001
      2          6           0        0.128956    1.335832    0.083373
      3          6           0       -0.713009    4.337343   -0.076868
      4          6           0        0.802499    2.278734    0.814877
      5          6           0       -0.445884    4.195547    1.320938
      6          6           0        0.258790    3.122673    1.715104
      7          1           0       -1.831185    0.588044    0.793878
      8          1           0        0.725629    1.191922   -0.819662
      9          1           0        1.848404    1.920703    0.940613
     10          1           0       -0.416205    5.186540   -0.665101
     11          1           0       -0.147553    5.075259    1.926484
     12          1           0        0.206111    2.893520    2.762167
     13          6           0       -2.053875    2.354273   -0.055126
     14          1           0       -3.119139    2.112621   -0.040585
     15          6           0       -1.359333    3.387903   -0.767757
     16          1           0       -0.834056    3.104756   -1.678041
 ---------------------------------------------------------------------
                    Distance matrix (angstroms):
                    1          2          3          4          5
     1  C    0.000000
     2  C    1.497390   0.000000
     3  C    3.186273   3.121482   0.000000
     4  C    2.532097   1.370337   2.707368   0.000000
     5  C    3.366663   3.168593   1.430147   2.342804   0.000000
     6  C    3.009349   2.423263   2.372968   1.348429   1.342755
     7  H    1.089494   2.214985   4.008211   3.129723   3.900119
     8  H    2.259121   1.091879   3.537668   1.964380   3.869932
     9  H    3.408363   2.008342   3.665549   1.112615   3.253201
    10  H    4.138240   3.960476   1.074824   3.482945   2.219752
    11  H    4.460652   4.178138   2.208547   3.155760   1.108865
    12  H    3.559905   3.099723   3.315045   2.127341   2.048783
    13  C    1.331054   2.412708   2.393942   2.986886   2.805258
    14  H    1.971165   3.341989   3.277218   4.017294   3.652206
    15  C    2.313190   2.674028   1.340336   2.899743   2.418538
    16  H    2.604392   2.675643   2.024272   3.094393   3.214712
                    6          7          8          9         10
     6  C    0.000000
     7  H    3.411891   0.000000
     8  H    3.220369   3.083095   0.000000
     9  H    2.138092   3.916234   2.211406   0.000000
    10  H    3.221885   5.027619   4.157481   4.286311   0.000000
    11  H    2.005590   4.924685   4.835708   3.860959   2.607848
    12  H    1.073139   3.652391   3.999354   2.638476   4.170297
    13  C    3.012071   1.972300   3.108250   4.050588   3.328028
    14  H    3.938661   2.163213   4.029501   5.067155   4.140634
    15  C    2.975444   3.240457   3.028546   3.919283   2.033501
    16  H    3.564838   3.665854   2.613114   3.931275   2.352546
                   11         12         13         14         15
    11  H    0.000000
    12  H    2.362928   0.000000
    13  C    3.868412   3.651775   0.000000
    14  H    4.634319   4.418428   1.092425   0.000000
    15  C    3.402135   3.892993   1.434790   2.291732   0.000000
    16  H    4.164946   4.565305   2.164494   2.981139   1.088441
                   16
    16  H    0.000000
 Stoichiometry    C8H8
 Framework group  C1[X(C8H8)]
 Deg. of freedom    42
 Full point group                 C1      NOp   1
 Largest Abelian subgroup         C1      NOp   1
 Largest concise Abelian subgroup C1      NOp   1
                         Standard orientation:                         
 ---------------------------------------------------------------------
 Center     Atomic      Atomic             Coordinates (Angstroms)
 Number     Number       Type             X           Y           Z
 ---------------------------------------------------------------------
      1          6           0        1.726482    0.186289    0.389557
      2          6           0        1.021398    1.173282   -0.488439
      3          6           0       -1.014587   -1.192735   -0.469030
      4          6           0       -0.324369    1.424880   -0.429845
      5          6           0       -1.601884   -0.309879    0.490642
      6          6           0       -1.178230    0.964190    0.506610
      7          1           0        2.104393    0.555598    1.342338
      8          1           0        1.286634    1.270126   -1.543176
      9          1           0       -0.502539    2.409104   -0.917155
     10          1           0       -1.571480   -1.731139   -1.214174
     11          1           0       -2.693534   -0.337744    0.683276
     12          1           0       -1.417870    1.520539    1.392429
     13          6           0        1.120000   -0.980832    0.593793
     14          1           0        1.733260   -1.574495    1.275607
     15          6           0        0.308351   -1.403823   -0.511162
     16          1           0        0.718171   -1.280215   -1.511899
 ---------------------------------------------------------------------
 Rotational constants (GHZ):           3.1776480           2.7599714           1.8677679
 Standard basis: CC-pVDZ (5D, 7F)
 There are   160 symmetry adapted cartesian basis functions of A   symmetry.
 There are   152 symmetry adapted basis functions of A   symmetry.
   152 basis functions,   320 primitive gaussians,   160 cartesian basis functions
    28 alpha electrons       28 beta electrons
       nuclear repulsion energy       338.6108521790 Hartrees.
 NAtoms=   16 NActive=   16 NUniq=   16 SFac= 1.00D+00 NAtFMM=   60 NAOKFM=F Big=F
 Integral buffers will be    131072 words long.
 Raffenetti 2 integral format.
 Two-electron integral symmetry is turned on.
 One-electron integrals computed using PRISM.
 NBasis=   152 RedAO= T EigKep=  9.27D-04  NBF=   152
 NBsUse=   152 1.00D-06 EigRej= -1.00D+00 NBFU=   152
 Initial guess from the checkpoint file:  "COT-boat_opt.chk"
 B after Tr=     0.000000    0.000000    0.000000
         Rot=    0.992607   -0.007117   -0.007606   -0.120922 Ang= -13.94 deg.
 ExpMin= 1.22D-01 ExpMax= 6.67D+03 ExpMxC= 2.28D+02 IAcc=2 IRadAn=         4 AccDes= 0.00D+00
 Harris functional with IExCor=  402 and IRadAn=       4 diagonalized for initial guess.
 HarFok:  IExCor=  402 AccDes= 0.00D+00 IRadAn=         4 IDoV= 1 UseB2=F ITyADJ=14
 ICtDFT=  3500011 ScaDFX=  1.000000  1.000000  1.000000  1.000000
 FoFCou: FMM=F IPFlag=           0 FMFlag=      100000 FMFlg1=           0
         NFxFlg=           0 DoJE=T BraDBF=F KetDBF=T FulRan=T
         wScrn=  0.000000 ICntrl=       500 IOpCl=  0 I1Cent=   200000004 NGrid=           0
         NMat0=    1 NMatS0=      1 NMatT0=    0 NMatD0=    1 NMtDS0=    0 NMtDT0=    0
 Petite list used in FoFCou.
 Requested convergence on RMS density matrix=1.00D-08 within 128 cycles.
 Requested convergence on MAX density matrix=1.00D-06.
 Requested convergence on             energy=1.00D-06.
 No special actions if energy rises.
 Integral accuracy reduced to 1.0D-05 until final iterations.
 Initial convergence to 1.0D-05 achieved.  Increase integral accuracy.
 SCF Done:  E(RB3LYP) =  -309.450210719     A.U. after   14 cycles
            NFock= 14  Conv=0.51D-08     -V/T= 2.0045
 Calling FoFJK, ICntrl=      2127 FMM=F ISym2X=0 I1Cent= 0 IOpClX= 0 NMat=1 NMatS=1 NMatT=0.
 ***** Axes restored to original set *****
 -------------------------------------------------------------------
 Center     Atomic                   Forces (Hartrees/Bohr)
 Number     Number              X              Y              Z
 -------------------------------------------------------------------
      1        6           0.028705631   -0.002160385    0.051865489
      2        6          -0.002177605    0.025623833   -0.034401624
      3        6          -0.011926309    0.023104058   -0.004251666
      4        6           0.024668309   -0.105422169   -0.025507738
      5        6           0.010652292    0.051711526   -0.002508767
      6        6          -0.036091299    0.022646799    0.056316361
      7        1          -0.000542341   -0.028303153   -0.010195112
      8        1           0.003934694   -0.035819218   -0.002017698
      9        1           0.001914781    0.019668639   -0.005589988
     10        1           0.020708758    0.013491947   -0.003409496
     11        1          -0.028528667    0.001555032    0.007028658
     12        1           0.025017277    0.006209520    0.022909593
     13        6          -0.016236905   -0.039003864   -0.035460671
     14        1          -0.010233715    0.024798193    0.008972206
     15        6           0.009563347    0.011842288    0.000967388
     16        1          -0.019428249    0.010056954   -0.024716934
 -------------------------------------------------------------------
 Cartesian Forces:  Max     0.105422169 RMS     0.027644817

 GradGradGradGradGradGradGradGradGradGradGradGradGradGradGradGradGradGrad
 Berny optimization.
 Using GEDIIS/GDIIS optimizer.
 FormGI is forming the generalized inverse of G from B-inverse, IUseBI=4.
 Internal  Forces:  Max     0.104028848 RMS     0.021611738
 Search for a local minimum.
 Step number   4 out of a maximum of   82
 All quantities printed in internal units (Hartrees-Bohrs-Radians)
 Mixed Optimization -- RFO/linear search
 Update second derivatives using D2CorX and points    3    4
 ITU=  0  0  1  0
 Use linear search instead of GDIIS.
     Eigenvalues ---    0.00397   0.00558   0.00564   0.00754   0.00865
     Eigenvalues ---    0.00994   0.01184   0.01364   0.01517   0.01862
     Eigenvalues ---    0.02213   0.02525   0.07363   0.09259   0.11690
     Eigenvalues ---    0.12372   0.13320   0.14202   0.14504   0.15587
[...]
   zz         0.693679D+02      0.102793D+02      0.114372D+02

 ----------------------------------------------------------------------

 Dipole orientation:
     6         -2.21401682         -2.21438286         -1.18705903
     6          0.53732163         -2.10799890         -0.75973484
     6         -1.22139272         -8.29064556         -1.41271817
     6          2.33080287         -3.54824234         -1.84039788
     6          0.45884552         -7.61087168         -3.52897315
     6          1.97820483         -5.58187774         -3.71196989
     1         -3.11368883         -0.38170038         -1.55256929
     1          1.17107700         -0.57010646          0.47921483
     1          4.30705027         -3.08914628         -1.40976745
     1         -1.06013502        -10.25403967         -0.76412754
     1          0.56423528         -9.01833627         -5.04875566
     1          3.22010752         -5.46972279         -5.36929980
     6         -3.73386306         -4.24304581         -1.00448451
     1         -5.77107394         -3.92919872         -1.23471576
     6         -3.01520121         -6.85001295         -0.33304299
     1         -4.19670539         -7.73489548          1.12394236

 Electric dipole moment (dipole orientation):
 (Debye = 10**-18 statcoulomb cm , SI units = C m)
                  (au)            (Debye)         (10**-30 SI)
   Tot        0.251881D-03      0.640218D-03      0.213554D-02
   x          0.000000D+00      0.000000D+00      0.000000D+00
   y          0.000000D+00      0.000000D+00      0.000000D+00
   z          0.251881D-03      0.640218D-03      0.213554D-02

 Dipole polarizability, Alpha (dipole orientation).
 (esu units = cm**3 , SI units = C**2 m**2 J**-1)
 Alpha(0;0):
               (au)            (10**-24 esu)      (10**-40 SI)
   iso        0.823650D+02      0.122052D+02      0.135802D+02
   aniso      0.500271D+02      0.741326D+01      0.824836D+01
   xx         0.918191D+02      0.136062D+02      0.151389D+02
   yx         0.386550D+01      0.572808D+00      0.637335D+00
   yy         0.969663D+02      0.143689D+02      0.159876D+02
   zx        -0.171578D+02     -0.254252D+01     -0.282894D+01
   zy         0.918090D+01      0.136047D+01      0.151373D+01
   zz         0.583097D+02      0.864061D+01      0.961397D+01

 ----------------------------------------------------------------------
 1\1\GINC-LSQC03\Freq\RB3LYP\CC-pVDZ\C8H8\QINGCHUN\17-Apr-2020\0\\#N Ge
 om=AllCheck Guess=TCheck SCRF=Check GenChk RB3LYP/CC-pVDZ Freq\\cc-pVD
 Z\\0,1\C,-1.2794175374,1.223104221,0.0864787446\C,0.1772461741,1.16646
 65289,0.3078488584\C,-0.7446994168,4.4340298565,-0.0955369549\C,0.9324
 938913,2.0208437232,1.0207746201\C,-0.2312184779,4.2530742562,1.274749
 7772\C,0.4861406346,3.2206112859,1.7522979599\H,-1.8116311558,0.279999
 688,0.2651133085\H,0.6730580349,0.2762995173,-0.1000573343\H,1.9937398
 96,1.7705432231,1.1461684576\H,-0.5405075405,5.4164527812,-0.540192815
 \H,-0.3982867288,5.1039135668,1.9476450483\H,0.855548297,3.2982057065,
 2.7828802857\C,-1.9970921833,2.2554195745,-0.3909093154\H,-3.066661666
 ,2.0853053584,-0.5689280086\C,-1.5002704207,3.5795181533,-0.8079904211
 \H,-1.8616342605,3.9222151792,-1.786047051\\Version=ES64L-G16RevA.03\S
 tate=1-A\HF=-309.6029478\RMSD=6.251e-09\RMSF=2.314e-05\ZeroPoint=0.132
 0475\Thermal=0.1388197\Dipole=0.0000739,-0.0000352,-0.0002382\DipoleDe
 riv=0.0934783,0.0524428,0.0379429,0.0789278,0.036781,-0.0826953,0.0200
 545,-0.1032232,-0.1214862,0.0878374,-0.0638492,0.0272398,-0.0851283,-0
 .0115687,0.1085749,0.0044093,0.1300236,-0.067577,-0.0759754,0.1010967,
 0.0581626,0.073166,0.0338726,-0.1065224,0.075743,-0.0876118,0.0506858,
 0.1158891,-0.0641342,-0.0033108,-0.0263118,0.0185398,0.099466,-0.00026
 11,0.0950343,-0.1256519,-0.0833206,-0.1091358,0.0361435,-0.0862416,-0.
 0033051,0.089806,0.0592958,0.0701517,0.0954595,-0.1382917,-0.0631348,0
 .0467379,-0.07516,0.027712,0.0291,0.0473915,0.0653597,0.1192396,-0.035
 9614,-0.090941,-0.0223224,-0.0724684,-0.08642,0.0325055,0.0138946,0.03
 24652,0.1136423,-0.0296013,0.0921706,-0.0016816,0.0652754,-0.0650244,-
 0.0765609,0.0288706,-0.0779514,0.0858676,-0.1198209,0.0757451,-0.03971
 19,0.0660425,0.0328933,-0.0224079,-0.0263041,-0.0596398,0.0782353,0.09
 73868,-0.0398125,-0.0086259,-0.039509,-0.0984204,0.0705759,-0.0420388,
 0.0937972,-0.0076962,0.1005133,0.0340511,-0.0026259,0.0420516,-0.05716
 52,-0.0824633,-0.0359801,-0.1043426,-0.0520629,0.0640275,0.0468571,-0.
 0670946,0.0144121,0.0399493,-0.0428996,-0.0866922,-0.057776,-0.1127398
 ,0.1193849,0.0604769,0.0091033,0.0229816,0.0524142,-0.0539042,0.003181
 8,-0.0495547,-0.1631473,-0.124835,-0.0579477,-0.0557003,-0.052037,0.02
 068,0.0091616,-0.0390278,0.0458195,0.0954513,-0.1329657,0.0568127,0.06
 00748,0.0685262,0.0513367,-0.047827,0.0622226,-0.0841269,0.0904749,0.0
 622547,-0.0306977,-0.0743313,0.0054728,0.0077246,0.0760906,-0.0847597,
 0.0915751,-0.0786949\Polar=79.03858,-2.6342247,98.6886202,24.3672088,3
 .2115145,69.3679431\Quadrupole=-0.2605776,1.2790497,-1.0184721,-0.2059
 65,1.9092734,0.2522955\PG=C01 [X(C8H8)]\NImag=0\\0.62032025,-0.0730669
 3,0.70823559,0.11114287,-0.17902613,0.20566853,-0.24170582,-0.00348255
 ,-0.02451851,0.62500327,0.01508901,-0.09634044,-0.00314371,0.04360658,
 0.58909137,-0.02217087,-0.00242221,-0.07061504,0.13488881,0.27189535,0
 .32015009,0.00024705,0.00254321,-0.00570128,-0.00356675,-0.00127061,-0
 .00191513,0.33030376,-0.00024708,0.00036157,-0.00180416,-0.00305927,-0
 .00101862,-0.00063557,0.22178502,0.64122426,0.01040996,-0.00149373,-0.
 00114986,-0.00927231,-0.00378033,-0.00187022,0.21474167,0.01803509,0.5
 6268488,-0.02589937,-0.01772385,-0.01846280,-0.23234482,-0.15322030,-0
 .13895600,-0.00463841,-0.00126811,0.00124154,0.64738212,-0.00961795,0.
 01000103,0.00061927,-0.13461797,-0.25996921,-0.15802827,-0.00134243,0.
 00024813,0.00670217,0.03129107,0.53270326,-0.00251832,-0.00429711,0.00
 470728,-0.13656835,-0.17290480,-0.18091124,0.00477264,0.00167808,0.003
 80261,0.16349909,0.26887075,0.35430418,-0.00333249,0.00175799,-0.00150
 662,0.00013730,-0.00106490,-0.00606641,-0.08656086,0.00818817,-0.05516
 118,-0.00098388,0.01850612,0.00627531,0.31106151,0.00528793,-0.0024237
 2,0.00058925,-0.00231245,-0.00038458,0.00223053,0.00513723,-0.09880742
 ,0.00765322,0.01707331,-0.02138153,0.00332013,-0.25434413,0.66581765,-
 0.00807024,0.00402701,-0.00071451,0.01021254,0.00127438,-0.00028652,-0
 .05516319,0.02612820,-0.22328385,0.00850211,-0.01503577,0.01117247,0.1
 5504659,-0.00212977,0.55731595,0.00343232,-0.00222370,0.00295767,0.013
 48351,-0.01174124,-0.00122553,0.00086958,0.00980327,-0.00511168,-0.102
 18522,0.04226671,0.00725632,-0.18297154,0.20172813,-0.09644933,0.35549
 107,-0.00667049,0.00091929,0.00299312,0.00548317,-0.01650953,-0.022976
 48,0.00514560,0.00451125,0.01354485,0.05152628,-0.18218754,-0.06627521
 ,0.18354764,-0.34204045,0.09886250,-0.26668518,0.60896982,-0.00124492,
 0.00242782,-0.00493466,0.00380089,-0.01825933,-0.00813863,-0.02053127,
 0.02273653,-0.01654635,0.02071490,-0.07536963,-0.12443038,-0.09875538,
 0.11428247,-0.14818843,0.17901863,-0.00239095,0.56993584,-0.11822921,-
 0.11538039,0.02178392,-0.01349602,-0.02721859,0.00213061,0.00008536,0.
 00030018,0.00020386,-0.00421488,0.00201842,0.00167668,-0.00026871,0.00
 000226,-0.00080092,0.00003222,-0.00051789,0.00068025,0.12581482,-0.108
 81453,-0.25056563,0.04068044,-0.00006565,0.00212111,-0.00059315,-0.000
 14795,0.00007695,-0.00009740,0.00065262,0.00119707,0.00130041,-0.00005
 043,-0.00012224,0.00011308,0.00009747,-0.00010261,0.00012255,0.1208221
 7,0.26756821,0.02300266,0.03619893,-0.04263049,-0.00786793,-0.00593336
 ,0.00266484,-0.00018076,0.00077939,-0.00277681,0.00032967,0.00191674,0
 .00022155,0.00027917,-0.00068001,0.00125860,-0.00029133,0.00085528,0.0
 0065978,-0.01696468,-0.04868585,0.03442727,-0.01237587,0.02639033,0.00
 884284,-0.10988898,0.10178898,0.04632298,-0.00026381,0.00019914,-0.000
 78686,0.00906512,-0.01579210,-0.00908014,0.00007932,-0.00034093,0.0001
 4168,-0.00105234,0.00030219,-0.00306395,0.00074124,-0.00076746,-0.0004
 6141,0.11674855,0.00250789,-0.00051533,-0.00028868,0.09509328,-0.22752
 216,-0.08799630,-0.00001906,-0.00018031,-0.00044545,0.01340643,-0.0146
 1031,-0.00921823,0.00019172,0.00007351,0.00081377,-0.00258634,0.003986
 57,-0.00565176,0.00085163,0.00055571,0.00033700,-0.10800932,0.23888037
 ,-0.00731026,0.00557285,0.00418100,0.04606757,-0.08355024,-0.07408449,
 0.00030267,0.00030571,0.00131163,0.00472792,-0.01742442,-0.00402076,-0
 .00015606,-0.00005354,-0.00276668,-0.00302288,-0.00760310,0.00833286,-
 0.00027194,-0.00031431,0.00052752,-0.04254137,0.10070249,0.07225080,0.
 00114725,-0.00059050,-0.00404749,-0.01735359,0.00554147,-0.00222933,-0
 .00048297,-0.00022948,-0.00041904,-0.30217371,0.06147703,-0.03290609,-
 0.00033812,-0.00022621,0.00228995,-0.00617785,0.00208379,-0.00294709,-
 0.00024227,-0.00004141,-0.00013623,0.00080583,-0.00112744,0.00187858,0
 .32435976,-0.00051713,0.00250232,-0.00716362,-0.02142126,0.00394344,-0
 .00613408,0.00026929,0.00052808,-0.00079232,0.06721591,-0.05837112,0.0
 0134642,-0.00062217,-0.00108902,-0.00397201,0.02692339,-0.00834973,0.0
 0277544,0.00019549,-0.00010760,0.00040325,-0.00154195,-0.00104785,0.00
 375884,-0.06790445,0.06372368,-0.00071242,-0.00818883,0.00761534,-0.01
 872226,0.00440788,0.00385650,0.00053000,0.00005184,0.00054484,-0.03149
 063,-0.00409400,-0.05087069,0.00177206,-0.00206431,-0.00136833,0.01205
 512,-0.00206680,0.00581136,-0.00194221,0.00013340,-0.00079810,0.001040
 30,0.00319670,-0.00504228,0.03814532,0.00820528,0.03971070,-0.00269764
 ,-0.00046294,0.00034558,0.00114766,0.00047537,0.00006583,-0.04574199,-
 0.04474824,0.01774760,0.00056924,-0.00077311,-0.00053265,0.00261168,0.
 01241586,-0.00932290,-0.00007633,-0.00200132,-0.00092164,-0.00002908,-
 0.00000546,0.00119490,0.00018676,0.00007771,-0.00017604,0.00012094,0.0
 0013473,-0.00018248,0.04316583,0.00044267,0.00013834,0.00008855,-0.000
 15693,-0.00018647,0.00006098,-0.05035125,-0.26715769,0.09569465,-0.000
 31112,-0.00003094,-0.00000739,0.00017768,-0.00292622,0.00256433,-0.001
 26637,0.00185611,0.00046536,0.00010846,-0.00009633,-0.00017230,0.00004
 847,-0.00003864,0.00002116,-0.00000693,0.00000810,0.00007393,0.0578496
 0,0.28391699,0.00079718,-0.00022484,-0.00005444,-0.00111545,0.00000852
 ,-0.00009389,0.01667122,0.10135317,-0.09862963,0.00060043,0.00059260,0
 .00005094,0.00292324,0.02635525,-0.00839553,0.00033348,-0.00092978,-0.
 00457606,0.00022277,-0.00014551,-0.00036375,0.00003613,0.00001356,0.00
 022467,-0.00012058,0.00007925,0.00032143,-0.00946360,-0.10877846,0.100
 83004,0.00113878,-0.00052861,-0.00006230,-0.00270032,0.00047482,0.0004
 5864,0.00213790,-0.00980555,-0.01213924,0.00862364,0.00718030,-0.00355
 039,-0.04241689,0.03168041,0.02265365,-0.00075079,0.01746876,0.0073401
 3,0.00018224,-0.00004004,-0.00019299,-0.00004023,-0.00029383,0.0011660
 8,-0.00003343,-0.00102863,-0.00021899,0.00038927,0.00052011,-0.0002494
 7,0.03897987,0.00037295,-0.00016100,-0.00007956,-0.00051302,0.00010048
 ,-0.00006674,-0.00082971,0.00404403,0.00096141,0.00590920,0.00198287,0
 .00222677,0.03741383,-0.21317446,-0.12508338,0.00479825,-0.01745130,-0
 .01910724,-0.00006410,-0.00001064,-0.00007368,-0.00016430,-0.00016999,
 0.00017054,0.00029325,-0.00155322,-0.00051825,-0.00043995,0.00056101,-
 0.00076727,-0.04579851,0.22509969,-0.00105019,0.00001729,-0.00011073,0
 .00068862,0.00023479,-0.00001539,0.00177738,-0.02335646,-0.01489190,-0
 .00421774,-0.00096185,0.00065825,0.02275960,-0.13072031,-0.15581966,-0
 .00398084,0.00955501,0.00863902,0.00002025,-0.00007488,0.00020153,0.00
 019550,0.00018420,-0.00027847,-0.00025935,0.00076541,0.00044033,-0.000
 33933,0.00070014,0.00087369,-0.01717503,0.14023422,0.16371397,0.000628
 10,-0.00004975,0.00025223,0.00033581,0.00163701,0.00197027,0.00852508,
 0.00743223,-0.00104651,0.00586193,-0.00111634,0.00538755,-0.00033568,-
 0.00253521,-0.01939234,-0.07681962,0.00465271,-0.08724006,0.00022324,-
 0.00007512,-0.00023506,0.00027350,0.00019393,-0.00009885,0.00071928,-0
 .00070802,-0.00054734,-0.00124386,0.00025032,-0.00172852,-0.00506466,-
 0.00257852,0.00209518,0.06791584,0.00077170,0.00042951,-0.00036040,0.0
 0351194,-0.00182564,-0.00053143,0.00681189,0.00053460,-0.00088282,-0.0
 0944798,-0.00374590,-0.02644708,0.01160593,0.00068637,0.02429047,-0.00
 169625,-0.04650311,-0.02579218,-0.00011835,0.00004535,-0.00010137,-0.0
 0075820,-0.00157993,0.00099330,0.00051667,0.00027156,0.00061065,-0.000
 27406,-0.00007141,0.00011878,-0.00313363,-0.00059014,0.00187340,-0.006
 83272,0.05274227,-0.00049827,0.00042932,-0.00046752,0.00271019,-0.0006
 0692,-0.00130791,-0.00445570,-0.00052905,0.00220879,-0.00714813,-0.001
 16602,-0.01083196,-0.00482910,-0.00213478,-0.00990872,-0.08873678,-0.0
 2110861,-0.28819377,-0.00015826,0.00002560,0.00018195,-0.00047983,-0.0
 0053725,0.00015761,0.00011801,-0.00045896,0.00083445,0.00003493,0.0000
 3258,0.00016624,0.00278597,0.00123611,0.00037005,0.10006183,0.02506284
 ,0.30724208,-0.21984352,0.17884694,-0.09172467,-0.02465638,0.02306501,
 -0.01334994,-0.00249405,-0.01948100,0.00438667,0.00118625,0.00540423,0
 .00158840,-0.00456851,0.00119612,0.00125084,0.00028416,0.00051554,-0.0
 0009843,0.00913930,-0.01528508,0.00176090,-0.00432070,-0.00047369,0.00
 011768,-0.00056637,-0.00132105,0.00091396,0.00812905,-0.00494467,-0.00
 551927,0.00061056,0.00013466,0.00063191,0.00023316,-0.00016064,-0.0002
 9384,0.64331701,0.16013825,-0.34745153,0.12208871,0.01126439,0.0075156
 9,0.00090808,-0.02023493,-0.02064328,0.00651062,-0.00558195,0.00193240
 ,0.00668527,0.00037658,0.00243471,-0.00709844,0.00543332,-0.00829200,-
 0.00153654,0.01644710,-0.02040685,0.01315155,-0.00213173,0.00201709,-0
 .00148231,-0.00077225,-0.00129821,0.00144421,-0.00631219,0.00264452,0.
 00159978,0.00085809,0.00007321,-0.00060697,0.00101779,0.00025893,-0.00
 090747,-0.07117898,0.65534432,-0.09341487,0.13697364,-0.10590768,0.000
 29435,0.00522420,0.00597855,0.00114365,-0.01173034,0.01197477,-0.00002
 106,-0.00531644,-0.00365666,0.00488401,-0.00221363,0.00154493,-0.00365
 169,0.00398121,0.00155245,-0.00475230,0.00534261,0.00170422,0.00111352
 ,-0.00091454,-0.00049190,0.00059845,0.00059378,-0.00075216,-0.00531461
 ,-0.00159920,0.00049335,-0.00032797,0.00003719,-0.00009480,-0.00068891
 ,-0.00039954,0.00037575,0.14112186,-0.19925709,0.23560318,-0.01659812,
 -0.00405738,-0.00318531,0.00121424,0.00151686,-0.00353047,-0.00032725,
 -0.00042198,0.00241940,-0.00049267,0.00058237,0.00074047,-0.00048373,0
 .00035716,-0.00031423,0.00029316,-0.00063934,-0.00035817,0.00089389,0.
 00060083,0.00196768,-0.00023759,0.00008250,-0.00013295,-0.00021826,-0.
 00032811,0.00028099,-0.00000484,-0.00027443,-0.00037019,0.00011724,0.0
 0003339,-0.00012010,0.00009301,0.00002832,-0.00014577,-0.30655029,-0.0
 4179167,-0.04589495,0.32893209,0.02618425,0.00269005,0.00606011,0.0006
 2094,-0.00093351,0.00515808,0.00009564,-0.00253463,0.00358268,0.001041
 03,-0.00084397,-0.00063498,-0.00035463,0.00035386,0.00075860,-0.000313
 35,0.00001885,-0.00015981,0.00120765,0.00029783,-0.00247226,0.00029477
 ,-0.00003593,-0.00020278,0.00027675,0.00051856,-0.00022371,0.00098867,
 -0.00140604,-0.00121583,-0.00008857,0.00006540,-0.00013942,-0.00010523
 ,0.00013445,0.00003555,-0.04773045,-0.05470352,-0.00123258,0.04615564,
 0.06217732,-0.01294645,-0.00396443,0.00434773,-0.00027989,0.00604905,0
 .01098432,0.00193830,0.00169391,0.00006533,0.00114868,-0.00149794,-0.0
 0127780,0.00044700,-0.00011985,0.00071866,-0.00084449,0.00104620,0.000
 55524,0.00128092,-0.00187559,-0.00647565,-0.00193035,0.00013890,-0.000
 87403,0.00037155,0.00054174,-0.00078906,0.00004401,0.00005837,0.000262
 72,-0.00021435,-0.00013084,0.00026776,-0.00017027,-0.00013032,0.000145
 40,-0.04573284,0.00417107,-0.05025152,0.05219146,-0.00381210,0.0367750
 2,0.01366115,0.01018411,0.00236906,0.00379162,0.00134465,0.00333176,-0
 .19752115,-0.17592838,-0.14817340,0.00004067,-0.00464425,-0.00513714,0
 .00040064,-0.00786672,-0.00773933,-0.00323199,0.00460361,0.00241016,-0
 .00092836,0.00334904,-0.00200419,0.00004684,-0.00001789,-0.00034356,0.
 00033582,0.00050969,-0.00078733,-0.00167534,-0.00426830,-0.00562454,0.
 00005861,0.00120322,0.00070953,-0.00068915,-0.00048628,0.00066531,-0.1
 0616531,-0.04662792,-0.00157645,-0.00735910,-0.02908044,0.00508025,0.3
 7531937,-0.00770755,-0.02600155,0.01844854,0.00667962,0.00150068,-0.00
 143812,-0.15765270,-0.26660683,-0.12554402,-0.00078153,-0.00690171,-0.
 00597112,0.00048237,0.01217754,-0.00605359,-0.00483420,0.00199960,0.00
 676252,0.00056498,0.00093895,0.00585337,0.00033602,0.00016248,-0.00096
 599,0.00070027,0.00021441,-0.00109537,-0.01946939,-0.01723703,-0.01602
 804,0.00223083,0.00122447,0.00239416,-0.00146601,-0.00131243,0.0008996
 1,-0.05896224,-0.20828477,0.04433780,-0.00129604,-0.00612922,-0.001449
 65,0.22373388,0.58808072,0.00281166,0.01361190,0.00115077,0.00036613,-
 0.00073031,-0.00588329,-0.14656721,-0.14094824,-0.20903799,-0.00025575
 ,-0.00062146,0.00039717,-0.02189425,-0.01463884,-0.02376718,0.00096799
 ,-0.00651285,0.00069166,-0.00283435,0.00390545,0.01125050,0.00077787,-
 0.00027599,0.00037925,-0.00018698,0.00009050,0.00031660,0.00337860,0.0
 1222549,0.00934946,-0.00037880,0.00104598,-0.00407863,0.00091816,0.001
 21634,-0.00061409,0.00955819,0.05296231,-0.09423318,-0.00354832,-0.005
 83151,0.00477997,0.24032627,0.00080072,0.57080494,0.00010714,-0.002155
 97,0.00151480,0.00059927,-0.00002410,0.00027480,-0.00057149,0.00748108
 ,-0.01904047,0.00020399,-0.00082210,-0.00090339,0.00796998,-0.00725277
 ,-0.00284488,-0.00062036,0.00118495,0.00119594,0.00029622,-0.00022902,
 -0.00020038,0.00023236,0.00012248,-0.00020659,0.00009771,0.00014426,-0
 .00013409,-0.00485134,0.00218270,0.00260716,-0.00123178,0.00022936,-0.
 00173538,-0.00065597,-0.00033835,0.00036945,0.00626563,-0.00090390,0.0
 0648697,0.00072822,0.00080732,-0.00038355,-0.07608433,0.01744167,-0.08
 343922,0.06751475,-0.00415300,-0.00181852,0.00029828,-0.00063081,0.000
 41740,0.00056935,-0.00993925,0.00541993,-0.01964862,0.00021900,-0.0000
 2255,0.00032809,-0.00581178,0.00080600,0.00054062,0.00029607,-0.000825
 24,-0.00130525,0.00078097,-0.00138929,-0.00137666,0.00014609,0.0000247
 3,0.00007180,0.00000943,0.00010660,0.00012738,0.00254473,0.00002568,-0
 .00203118,0.00030405,-0.00004041,-0.00009873,0.00028293,0.00052551,-0.
 00027256,0.01037529,-0.01114072,0.02617294,-0.00054811,0.00033049,-0.0
 0071852,0.02399199,-0.07382532,0.08370051,-0.01786761,0.08140570,0.001
 77246,0.00035850,-0.00108573,-0.00068441,-0.00018516,-0.00042768,-0.00
 736296,0.00624191,-0.01440624,-0.00021224,0.00081428,0.00068503,-0.006
 01798,0.00032418,0.00248880,0.00072535,-0.00097438,-0.00116993,-0.0002
 7461,0.00016315,-0.00005298,-0.00012692,-0.00005843,0.00019327,-0.0001
 4966,-0.00003891,0.00016906,0.00344182,-0.00142817,-0.00045924,0.00010
 505,-0.00008527,0.00012498,0.00046263,0.00047936,-0.00035836,-0.004611
 42,0.00136723,-0.00383930,0.00000045,0.00032998,0.00076591,-0.08350640
 ,0.07904917,-0.26150597,0.09643884,-0.08635744,0.27887838\\0.00000140,
 0.00000492,0.00004806,-0.00001816,0.00000919,-0.00002189,0.00000038,0.
 00001641,0.00000890,0.00000095,0.00001825,0.00009556,-0.00001412,0.000
 01762,-0.00000236,0.00004853,-0.00002845,-0.00005231,-0.00000190,-0.00
 000316,-0.00002794,0.00001205,0.00000356,0.00000357,0.00000631,0.00001
 053,-0.00001979,0.00000247,-0.00001278,0.00000257,0.00001391,0.0000071
 8,0.00000372,-0.00002266,-0.00002120,-0.00000226,-0.00000110,0.0000028
 2,-0.00004051,-0.00000444,-0.00000273,0.00001765,-0.00002967,-0.000017
 85,-0.00000647,0.00000606,-0.00000430,-0.00000649\\\@


 HEAVEN'S NET CASTS WIDE.
 THOUGH ITS MESHES ARE COARSE, NOTHING SLIPS THROUGH.

                                          -- LAO-TSU
 Job cpu time:       0 days  0 hours 21 minutes 58.6 seconds.
 Elapsed time:       0 days  0 hours  2 minutes 45.1 seconds.
 File lengths (MBytes):  RWF=     46 Int=      0 D2E=      0 Chk=      3 Scr=      1
 Normal termination of Gaussian 16 at Fri Apr 17 11:59:34 2020.
