 Entering Gaussian System, Link 0=g16
 Input=C8H8_opt.gjf
 Output=C8H8_opt.log
 Initial command:
 /home/qingchun/software/g16A_modified_by_qingchun/g16/l1.exe "/scratch/qingchun/gaussian/Gau-13624.inp" -scrdir="/scratch/qingchun/gaussian/"
 Entering Link 1 = /home/qingchun/software/g16A_modified_by_qingchun/g16/l1.exe PID=     13625.
  
 Copyright (c) 1988,1990,1992,1993,1995,1998,2003,2009,2016,
            Gaussian, Inc.  All Rights Reserved.
  
 This is part of the Gaussian(R) 16 program.  It is based on
 the Gaussian(R) 09 system (copyright 2009, Gaussian, Inc.),
 the Gaussian(R) 03 system (copyright 2003, Gaussian, Inc.),
 the Gaussian(R) 98 system (copyright 1998, Gaussian, Inc.),
 the Gaussian(R) 94 system (copyright 1995, Gaussian, Inc.),
 the Gaussian 92(TM) system (copyright 1992, Gaussian, Inc.),
 the Gaussian 90(TM) system (copyright 1990, Gaussian, Inc.),
 the Gaussian 88(TM) system (copyright 1988, Gaussian, Inc.),
 the Gaussian 86(TM) system (copyright 1986, Carnegie Mellon
 University), and the Gaussian 82(TM) system (copyright 1983,
 Carnegie Mellon University). Gaussian is a federally registered
 trademark of Gaussian, Inc.
  
 This software contains proprietary and confidential information,
 including trade secrets, belonging to Gaussian, Inc.
  
 This software is provided under written license and may be
 used, copied, transmitted, or stored only in accord with that
 written license.
  
 The following legend is applicable only to US Government
 contracts under FAR:
  
                    RESTRICTED RIGHTS LEGEND
  
 Use, reproduction and disclosure by the US Government is
 subject to restrictions as set forth in subparagraphs (a)
 and (c) of the Commercial Computer Software - Restricted
 Rights clause in FAR 52.227-19.
  
 Gaussian, Inc.
 340 Quinnipiac St., Bldg. 40, Wallingford CT 06492
  
  
 ---------------------------------------------------------------
 Warning -- This program may not be used in any manner that
 competes with the business of Gaussian, Inc. or will provide
 assistance to any competitor of Gaussian, Inc.  The licensee
 of this program is prohibited from giving any competitor of
 Gaussian, Inc. access to this program.  By using this program,
 the user acknowledges that Gaussian, Inc. is engaged in the
 business of creating and licensing software in the field of
 computational chemistry and represents and warrants to the
 licensee that it is not a competitor of Gaussian, Inc. and that
 it will not use this program in any manner prohibited above.
 ---------------------------------------------------------------
  

 Cite this work as:
 Gaussian 16, Revision A.03,
 M. J. Frisch, G. W. Trucks, H. B. Schlegel, G. E. Scuseria, 
 M. A. Robb, J. R. Cheeseman, G. Scalmani, V. Barone, 
 G. A. Petersson, H. Nakatsuji, X. Li, M. Caricato, A. V. Marenich, 
 J. Bloino, B. G. Janesko, R. Gomperts, B. Mennucci, H. P. Hratchian, 
 J. V. Ortiz, A. F. Izmaylov, J. L. Sonnenberg, D. Williams-Young, 
 F. Ding, F. Lipparini, F. Egidi, J. Goings, B. Peng, A. Petrone, 
 T. Henderson, D. Ranasinghe, V. G. Zakrzewski, J. Gao, N. Rega, 
 G. Zheng, W. Liang, M. Hada, M. Ehara, K. Toyota, R. Fukuda, 
 J. Hasegawa, M. Ishida, T. Nakajima, Y. Honda, O. Kitao, H. Nakai, 
 T. Vreven, K. Throssell, J. A. Montgomery, Jr., J. E. Peralta, 
 F. Ogliaro, M. J. Bearpark, J. J. Heyd, E. N. Brothers, K. N. Kudin, 
 V. N. Staroverov, T. A. Keith, R. Kobayashi, J. Normand, 
 K. Raghavachari, A. P. Rendell, J. C. Burant, S. S. Iyengar, 
 J. Tomasi, M. Cossi, J. M. Millam, M. Klene, C. Adamo, R. Cammi, 
 J. W. Ochterski, R. L. Martin, K. Morokuma, O. Farkas, 
 J. B. Foresman, and D. J. Fox, Gaussian, Inc., Wallingford CT, 2016.
 
 ******************************************
 Gaussian 16:  ES64L-G16RevA.03 25-Dec-2016
                16-Apr-2020 
 ******************************************
 %nprocshared=8
 Will use up to    8 processors via shared memory.
 %mem=30GB
 %chk=C8H8_opt.chk
 ------------------------
 # opt freq b3lyp/cc-pvdz
 ------------------------
 1/18=20,19=15,26=3,38=1/1,3;
 2/9=110,12=2,17=6,18=5,40=1/2;
 3/5=16,11=2,25=1,30=1,71=1,74=-5/1,2,3;
 4//1;
 5/5=2,38=5/2;
 6/7=2,8=2,9=2,10=2,28=1/1;
 7//1,2,3,16;
 1/18=20,19=15,26=3/3(2);
 2/9=110/2;
 99//99;
 2/9=110/2;
 3/5=16,11=2,25=1,30=1,71=1,74=-5/1,2,3;
 4/5=5,16=3,69=1/1;
 5/5=2,38=5/2;
 7//1,2,3,16;
 1/18=20,19=15,26=3/3(-5);
 2/9=110/2;
 6/7=2,8=2,9=2,10=2,19=2,28=1/1;
 99/9=1/99;
 -------
 cc-pVDZ
 -------
 Symbolic Z-matrix:
 Charge =  0 Multiplicity = 1
 C                    -1.31876   1.1354    0. 
 C                     0.19536   1.1354    0. 
 C                    -0.69072   4.64184   0. 
 C                     0.84976   2.21812   0.83805 
 C                     0.82339   4.64185   0.00008 
 C                     1.51465   3.29472   0.00041 
 H                    -1.67972   0.56892   0.90151 
 H                     0.5563    1.20085  -1.06183 
 H                     0.09894   2.67671   1.5322 
 H                    -1.05171   4.57643   1.06182 
 H                     1.18441   5.20837  -0.90137 
 H                     2.56114   3.4517    0.38092 
 C                    -2.01001   2.48252  -0.00035 
 H                    -2.11706   2.83351   1.06143 
 C                    -1.34513   3.55911  -0.83802 
 H                    -0.59431   3.1005   -1.53216 
 

 GradGradGradGradGradGradGradGradGradGradGradGradGradGradGradGradGradGrad
 Berny optimization.
 Initialization pass.
                           ----------------------------
                           !    Initial Parameters    !
                           ! (Angstroms and Degrees)  !
 --------------------------                            --------------------------
 ! Name  Definition              Value          Derivative Info.                !
 --------------------------------------------------------------------------------
 ! R1    R(1,2)                  1.5141         estimate D2E/DX2                !
 ! R2    R(1,7)                  1.1242         estimate D2E/DX2                !
 ! R3    R(1,13)                 1.5141         estimate D2E/DX2                !
 ! R4    R(2,4)                  1.5175         estimate D2E/DX2                !
 ! R5    R(2,8)                  1.1234         estimate D2E/DX2                !
 ! R6    R(3,5)                  1.5141         estimate D2E/DX2                !
 ! R7    R(3,10)                 1.1234         estimate D2E/DX2                !
 ! R8    R(3,15)                 1.5175         estimate D2E/DX2                !
 ! R9    R(4,6)                  1.5175         estimate D2E/DX2                !
 ! R10   R(4,9)                  1.1207         estimate D2E/DX2                !
 ! R11   R(5,6)                  1.5141         estimate D2E/DX2                !
 ! R12   R(5,11)                 1.1242         estimate D2E/DX2                !
 ! R13   R(6,12)                 1.1245         estimate D2E/DX2                !
 ! R14   R(13,14)                1.1234         estimate D2E/DX2                !
 ! R15   R(13,15)                1.5175         estimate D2E/DX2                !
 ! R16   R(15,16)                1.1207         estimate D2E/DX2                !
 ! A1    A(2,1,7)              108.7276         estimate D2E/DX2                !
 ! A2    A(2,1,13)             117.1639         estimate D2E/DX2                !
 ! A3    A(7,1,13)             107.5725         estimate D2E/DX2                !
 ! A4    A(1,2,4)              115.5459         estimate D2E/DX2                !
 ! A5    A(1,2,8)              108.7412         estimate D2E/DX2                !
 ! A6    A(4,2,8)              109.9903         estimate D2E/DX2                !
 ! A7    A(5,3,10)             108.7405         estimate D2E/DX2                !
 ! A8    A(5,3,15)             115.5481         estimate D2E/DX2                !
 ! A9    A(10,3,15)            109.9892         estimate D2E/DX2                !
 ! A10   A(2,4,6)              112.973          estimate D2E/DX2                !
 ! A11   A(2,4,9)              110.1893         estimate D2E/DX2                !
 ! A12   A(6,4,9)              110.19           estimate D2E/DX2                !
 ! A13   A(3,5,6)              117.1638         estimate D2E/DX2                !
 ! A14   A(3,5,11)             108.7283         estimate D2E/DX2                !
 ! A15   A(6,5,11)             107.5721         estimate D2E/DX2                !
 ! A16   A(4,6,5)              115.5498         estimate D2E/DX2                !
 ! A17   A(4,6,12)             108.6629         estimate D2E/DX2                !
 ! A18   A(5,6,12)             107.5014         estimate D2E/DX2                !
 ! A19   A(1,13,14)            108.739          estimate D2E/DX2                !
 ! A20   A(1,13,15)            115.55           estimate D2E/DX2                !
 ! A21   A(14,13,15)           109.9882         estimate D2E/DX2                !
 ! A22   A(3,15,13)            112.9727         estimate D2E/DX2                !
 ! A23   A(3,15,16)            110.1893         estimate D2E/DX2                !
 ! A24   A(13,15,16)           110.1897         estimate D2E/DX2                !
 ! D1    D(7,1,2,4)            -84.4036         estimate D2E/DX2                !
 ! D2    D(7,1,2,8)            151.3827         estimate D2E/DX2                !
 ! D3    D(13,1,2,4)            37.7555         estimate D2E/DX2                !
 ! D4    D(13,1,2,8)           -86.4581         estimate D2E/DX2                !
 ! D5    D(2,1,13,14)          -86.5044         estimate D2E/DX2                !
 ! D6    D(2,1,13,15)           37.7077         estimate D2E/DX2                !
 ! D7    D(7,1,13,14)           36.2501         estimate D2E/DX2                !
 ! D8    D(7,1,13,15)          160.4623         estimate D2E/DX2                !
 ! D9    D(1,2,4,6)           -108.9559         estimate D2E/DX2                !
 ! D10   D(1,2,4,9)             14.7747         estimate D2E/DX2                !
 ! D11   D(8,2,4,6)             14.6041         estimate D2E/DX2                !
 ! D12   D(8,2,4,9)            138.3347         estimate D2E/DX2                !
 ! D13   D(10,3,5,6)            86.4629         estimate D2E/DX2                !
 ! D14   D(10,3,5,11)         -151.3781         estimate D2E/DX2                !
 ! D15   D(15,3,5,6)           -37.7504         estimate D2E/DX2                !
 ! D16   D(15,3,5,11)           84.4086         estimate D2E/DX2                !
 ! D17   D(5,3,15,13)          108.953          estimate D2E/DX2                !
 ! D18   D(5,3,15,16)          -14.777          estimate D2E/DX2                !
 ! D19   D(10,3,15,13)         -14.6068         estimate D2E/DX2                !
 ! D20   D(10,3,15,16)        -138.3368         estimate D2E/DX2                !
 ! D21   D(2,4,6,5)            108.9291         estimate D2E/DX2                !
 ! D22   D(2,4,6,12)          -130.1878         estimate D2E/DX2                !
 ! D23   D(9,4,6,5)            -14.8011         estimate D2E/DX2                !
 ! D24   D(9,4,6,12)           106.082          estimate D2E/DX2                !
 ! D25   D(3,5,6,4)            -37.7111         estimate D2E/DX2                !
 ! D26   D(3,5,6,12)          -159.2205         estimate D2E/DX2                !
 ! D27   D(11,5,6,4)          -160.466          estimate D2E/DX2                !
 ! D28   D(11,5,6,12)           78.0246         estimate D2E/DX2                !
 ! D29   D(1,13,15,3)         -108.929          estimate D2E/DX2                !
 ! D30   D(1,13,15,16)          14.8008         estimate D2E/DX2                !
 ! D31   D(14,13,15,3)          14.6294         estimate D2E/DX2                !
 ! D32   D(14,13,15,16)        138.3592         estimate D2E/DX2                !
 --------------------------------------------------------------------------------
 Trust Radius=3.00D-01 FncErr=1.00D-07 GrdErr=1.00D-06 EigMax=2.50D+02 EigMin=1.00D-04
 Number of steps in this run=     82 maximum allowed number of steps=    100.
 GradGradGradGradGradGradGradGradGradGradGradGradGradGradGradGradGradGrad

                          Input orientation:                          
 ---------------------------------------------------------------------
 Center     Atomic      Atomic             Coordinates (Angstroms)
 Number     Number       Type             X           Y           Z
 ---------------------------------------------------------------------
      1          6           0       -1.318759    1.135402    0.000000
      2          6           0        0.195358    1.135402    0.000000
      3          6           0       -0.690723    4.641842    0.000000
      4          6           0        0.849760    2.218120    0.838045
      5          6           0        0.823392    4.641847    0.000084
      6          6           0        1.514648    3.294724    0.000405
      7          1           0       -1.679718    0.568918    0.901508
      8          1           0        0.556304    1.200847   -1.061832
      9          1           0        0.098941    2.676715    1.532199
     10          1           0       -1.051715    4.576429    1.061819
     11          1           0        1.184411    5.208374   -0.901373
     12          1           0        2.561136    3.451702    0.380915
     13          6           0       -2.010011    2.482522   -0.000352
     14          1           0       -2.117065    2.833509    1.061433
     15          6           0       -1.345127    3.559111   -0.838022
     16          1           0       -0.594310    3.100498   -1.532163
 ---------------------------------------------------------------------
                    Distance matrix (angstroms):
                    1          2          3          4          5
     1  C    0.000000
     2  C    1.514117   0.000000
     3  C    3.562240   3.616664   0.000000
     4  C    2.564580   1.517511   2.991628   0.000000
     5  C    4.109011   3.562244   1.514115   2.564630   0.000000
     6  C    3.562424   2.530454   2.584258   1.517496   1.514125
     7  H    1.124238   2.156277   4.287136   3.020290   4.864861
     8  H    2.155837   1.123411   3.810907   2.174970   3.611022
     9  H    2.594832   2.175448   2.613987   1.120664   2.594985
    10  H    3.611016   3.810947   1.123412   3.037648   2.155826
    11  H    4.864919   4.287167   2.156284   3.475512   1.124239
    12  H    4.534747   3.332754   3.483693   2.158588   2.140381
    13  C    1.514121   2.584257   2.530451   2.991840   3.562423
    14  H    2.155806   3.059004   2.535973   3.038200   3.611487
    15  C    2.564633   2.991612   1.517508   3.070014   2.564608
    16  H    2.594986   2.613944   2.175445   2.912356   2.594883
                    6          7          8          9         10
     6  C    0.000000
     7  H    4.294878   0.000000
     8  H    2.535960   3.042011   0.000000
     9  H    2.175443   2.829171   3.019332   0.000000
    10  H    3.058690   4.059585   4.300020   2.270282   0.000000
    11  H    2.141102   5.742662   4.059623   3.675570   3.041996
    12  H    1.124530   5.154251   3.341739   2.826387   3.844650
    13  C    3.617028   2.141104   3.058660   2.614212   2.535939
    14  H    3.811540   2.311973   3.784276   2.270878   2.042729
    15  C    2.991851   3.475510   3.037588   2.912371   2.174953
    16  H    2.614229   3.675563   2.270198   3.170253   3.019327
                   11         12         13         14         15
    11  H    0.000000
    12  H    2.574011   0.000000
    13  C    4.294932   4.688290   0.000000
    14  H    4.515787   4.767686   1.123405   0.000000
    15  C    3.020372   4.093438   1.517500   2.174929   0.000000
    16  H    2.829291   3.706757   2.175442   3.019405   1.120662
                   16
    16  H    0.000000
 Stoichiometry    C8H8
 Framework group  C1[X(C8H8)]
 Deg. of freedom    42
 Full point group                 C1      NOp   1
 Largest Abelian subgroup         C1      NOp   1
 Largest concise Abelian subgroup C1      NOp   1
                         Standard orientation:                         
 ---------------------------------------------------------------------
 Center     Atomic      Atomic             Coordinates (Angstroms)
 Number     Number       Type             X           Y           Z
 ---------------------------------------------------------------------
      1          6           0        2.066549    0.094974   -0.100562
      2          6           0        1.203341    1.322733   -0.300642
      3          6           0       -1.170715   -1.349077    0.252125
      4          6           0       -0.036038    1.400524    0.571555
      5          6           0       -2.033924   -0.121309    0.052128
      6          6           0       -1.321852    1.189704   -0.206282
      7          1           0        2.761953    0.279528    0.763305
      8          1           0        0.915007    1.388526   -1.384426
      9          1           0        0.034285    0.660729    1.410391
     10          1           0       -0.882382   -1.414929    1.335906
     11          1           0       -2.729396   -0.305828   -0.811691
     12          1           0       -2.037033    2.019068    0.049134
     13          6           0        1.354476   -1.216038    0.157817
     14          1           0        1.156121   -1.307945    1.259746
     15          6           0        0.068676   -1.426859   -0.620052
     16          1           0       -0.001631   -0.687053   -1.458877
 ---------------------------------------------------------------------
 Rotational constants (GHZ):           3.1850727           2.2750824           1.4998648
 Standard basis: CC-pVDZ (5D, 7F)
 There are   160 symmetry adapted cartesian basis functions of A   symmetry.
 There are   152 symmetry adapted basis functions of A   symmetry.
   152 basis functions,   320 primitive gaussians,   160 cartesian basis functions
    28 alpha electrons       28 beta electrons
       nuclear repulsion energy       318.3660823355 Hartrees.
 NAtoms=   16 NActive=   16 NUniq=   16 SFac= 1.00D+00 NAtFMM=   60 NAOKFM=F Big=F
 Integral buffers will be    131072 words long.
 Raffenetti 2 integral format.
 Two-electron integral symmetry is turned on.
 One-electron integrals computed using PRISM.
 NBasis=   152 RedAO= T EigKep=  2.89D-03  NBF=   152
 NBsUse=   152 1.00D-06 EigRej= -1.00D+00 NBFU=   152
 ExpMin= 1.22D-01 ExpMax= 6.67D+03 ExpMxC= 2.28D+02 IAcc=3 IRadAn=         5 AccDes= 0.00D+00
 Harris functional with IExCor=  402 and IRadAn=       5 diagonalized for initial guess.
 HarFok:  IExCor=  402 AccDes= 0.00D+00 IRadAn=         5 IDoV= 1 UseB2=F ITyADJ=14
 ICtDFT=  3500011 ScaDFX=  1.000000  1.000000  1.000000  1.000000
 FoFCou: FMM=F IPFlag=           0 FMFlag=      100000 FMFlg1=           0
         NFxFlg=           0 DoJE=T BraDBF=F KetDBF=T FulRan=T
         wScrn=  0.000000 ICntrl=       500 IOpCl=  0 I1Cent=   200000004 NGrid=           0
         NMat0=    1 NMatS0=      1 NMatT0=    0 NMatD0=    1 NMtDS0=    0 NMtDT0=    0
 Petite list used in FoFCou.
 Requested convergence on RMS density matrix=1.00D-08 within 128 cycles.
 Requested convergence on MAX density matrix=1.00D-06.
 Requested convergence on             energy=1.00D-06.
 No special actions if energy rises.
 Integral accuracy reduced to 1.0D-05 until final iterations.
 Problem detected with inexpensive integrals.
 Switching to full accuracy and repeating last cycle.
 SCF Done:  E(RB3LYP) =  -309.264506538     A.U. after   20 cycles
            NFock= 20  Conv=0.72D-08     -V/T= 2.0115

 **********************************************************************

            Population analysis using the SCF density.

 **********************************************************************

 Orbital symmetries:
       Occupied  (A) (A) (A) (A) (A) (A) (A) (A) (A) (A) (A) (A)
                 (A) (A) (A) (A) (A) (A) (A) (A) (A) (A) (A) (A)
                 (A) (A) (A) (A)
       Virtual   (A) (A) (A) (A) (A) (A) (A) (A) (A) (A) (A) (A)
                 (A) (A) (A) (A) (A) (A) (A) (A) (A) (A) (A) (A)
                 (A) (A) (A) (A) (A) (A) (A) (A) (A) (A) (A) (A)
                 (A) (A) (A) (A) (A) (A) (A) (A) (A) (A) (A) (A)
                 (A) (A) (A) (A) (A) (A) (A) (A) (A) (A) (A) (A)
                 (A) (A) (A) (A) (A) (A) (A) (A) (A) (A) (A) (A)
                 (A) (A) (A) (A) (A) (A) (A) (A) (A) (A) (A) (A)
                 (A) (A) (A) (A) (A) (A) (A) (A) (A) (A) (A) (A)
                 (A) (A) (A) (A) (A) (A) (A) (A) (A) (A) (A) (A)
                 (A) (A) (A) (A) (A) (A) (A) (A) (A) (A) (A) (A)
                 (A) (A) (A) (A)
 The electronic state is 1-A.
 Alpha  occ. eigenvalues --  -10.24210 -10.23908 -10.23804 -10.23686 -10.23635
 Alpha  occ. eigenvalues --  -10.23536 -10.23209 -10.22183  -0.83902  -0.77870
 Alpha  occ. eigenvalues --   -0.77077  -0.66233  -0.65993  -0.58561  -0.53886
 Alpha  occ. eigenvalues --   -0.52362  -0.46373  -0.45259  -0.43077  -0.39245
 Alpha  occ. eigenvalues --   -0.39058  -0.38367  -0.37381  -0.35250  -0.29714
 Alpha  occ. eigenvalues --   -0.27017  -0.24974  -0.20005
 Alpha virt. eigenvalues --   -0.11041  -0.09140  -0.08917  -0.05774   0.04944
 Alpha virt. eigenvalues --    0.07314   0.08829   0.10157   0.10819   0.14680
 Alpha virt. eigenvalues --    0.15102   0.15923   0.18534   0.22544   0.23525
 Alpha virt. eigenvalues --    0.24650   0.25271   0.29098   0.30350   0.34399
 Alpha virt. eigenvalues --    0.43606   0.43966   0.44796   0.46290   0.46725
 Alpha virt. eigenvalues --    0.47552   0.48574   0.48827   0.49290   0.49927
 Alpha virt. eigenvalues --    0.51284   0.51909   0.52395   0.53918   0.54354
 Alpha virt. eigenvalues --    0.56806   0.59849   0.61208   0.62548   0.62940
 Alpha virt. eigenvalues --    0.63835   0.64644   0.65650   0.66391   0.67551
 Alpha virt. eigenvalues --    0.68187   0.68983   0.70335   0.71217   0.73906
 Alpha virt. eigenvalues --    0.76209   0.79078   0.81900   0.83022   0.84785
 Alpha virt. eigenvalues --    0.87167   0.93441   0.96455   0.98793   1.04515
 Alpha virt. eigenvalues --    1.10780   1.13477   1.14809   1.19284   1.22820
 Alpha virt. eigenvalues --    1.26974   1.28876   1.30699   1.32509   1.37543
 Alpha virt. eigenvalues --    1.40104   1.41872   1.43711   1.48153   1.48849
 Alpha virt. eigenvalues --    1.49808   1.50546   1.52035   1.55050   1.56152
 Alpha virt. eigenvalues --    1.57094   1.57936   1.59635   1.60598   1.61021
 Alpha virt. eigenvalues --    1.64984   1.65246   1.67957   1.69845   1.71271
 Alpha virt. eigenvalues --    1.73905   1.75998   1.79224   1.80306   1.80804
 Alpha virt. eigenvalues --    1.83963   1.84445   1.85628   1.88373   1.89609
 Alpha virt. eigenvalues --    1.92344   1.93218   1.95969   1.99742   2.00303
 Alpha virt. eigenvalues --    2.00743   2.04338   2.05916   2.07592   2.10582
 Alpha virt. eigenvalues --    2.15368   2.22262   2.23470   2.24892   2.29419
 Alpha virt. eigenvalues --    2.32025   2.37715   2.43213   2.44507   2.46125
 Alpha virt. eigenvalues --    2.49095   2.52799   2.57206   2.59163
          Condensed to atoms (all electrons):
               1          2          3          4          5          6
     1  C    4.978526   0.419307  -0.015077  -0.063274   0.002047   0.007248
     2  C    0.419307   4.910763   0.007710   0.574161  -0.012844  -0.055696
     3  C   -0.015077   0.007710   4.967583   0.001171   0.404539  -0.075432
     4  C   -0.063274   0.574161   0.001171   4.947230  -0.054349   0.399865
     5  C    0.002047  -0.012844   0.404539  -0.054349   4.933109   0.559673
     6  C    0.007248  -0.055696  -0.075432   0.399865   0.559673   4.938398
     7  H    0.352205  -0.044570  -0.000226  -0.002250  -0.000084   0.000075
     8  H   -0.046483   0.357660  -0.001420  -0.047442   0.000477  -0.000010
     9  H   -0.008942  -0.037222   0.002670   0.370782  -0.013553  -0.045666
    10  H   -0.001847  -0.000149   0.360045  -0.001055  -0.038540  -0.001558
    11  H   -0.000111   0.000005  -0.037857   0.004011   0.351973  -0.018574
    12  H   -0.000661   0.003516   0.008195  -0.038559  -0.014544   0.329358
    13  C    0.545436  -0.079580  -0.049243  -0.039031   0.003232   0.004549
    14  H   -0.029879   0.006520  -0.002648   0.002717  -0.001057  -0.000329
    15  C   -0.048353  -0.009982   0.538659  -0.014176  -0.048490  -0.017210
    16  H   -0.007021   0.005030  -0.035498  -0.000393  -0.009186   0.008495
               7          8          9         10         11         12
     1  C    0.352205  -0.046483  -0.008942  -0.001847  -0.000111  -0.000661
     2  C   -0.044570   0.357660  -0.037222  -0.000149   0.000005   0.003516
     3  C   -0.000226  -0.001420   0.002670   0.360045  -0.037857   0.008195
     4  C   -0.002250  -0.047442   0.370782  -0.001055   0.004011  -0.038559
     5  C   -0.000084   0.000477  -0.013553  -0.038540   0.351973  -0.014544
     6  C    0.000075  -0.000010  -0.045666  -0.001558  -0.018574   0.329358
     7  H    0.674854   0.007381   0.004964  -0.000208  -0.000001   0.000028
     8  H    0.007381   0.670549   0.010589  -0.000086  -0.000109   0.000797
     9  H    0.004964   0.010589   0.669570   0.002868   0.000379   0.005213
    10  H   -0.000208  -0.000086   0.002868   0.656275   0.005677  -0.000709
    11  H   -0.000001  -0.000109   0.000379   0.005677   0.629064  -0.004612
    12  H    0.000028   0.000797   0.005213  -0.000709  -0.004612   0.657207
    13  C   -0.022947   0.005589   0.005936  -0.012109   0.000121  -0.000259
    14  H   -0.011747  -0.000888   0.000453   0.013939   0.000071   0.000043
    15  C    0.005296   0.000111  -0.002576  -0.036926  -0.000595   0.000905
    16  H   -0.000065  -0.000471   0.000489   0.009299   0.003013   0.000022
              13         14         15         16
     1  C    0.545436  -0.029879  -0.048353  -0.007021
     2  C   -0.079580   0.006520  -0.009982   0.005030
     3  C   -0.049243  -0.002648   0.538659  -0.035498
     4  C   -0.039031   0.002717  -0.014176  -0.000393
     5  C    0.003232  -0.001057  -0.048490  -0.009186
     6  C    0.004549  -0.000329  -0.017210   0.008495
     7  H   -0.022947  -0.011747   0.005296  -0.000065
     8  H    0.005589  -0.000888   0.000111  -0.000471
     9  H    0.005936   0.000453  -0.002576   0.000489
    10  H   -0.012109   0.013939  -0.036926   0.009299
    11  H    0.000121   0.000071  -0.000595   0.003013
    12  H   -0.000259   0.000043   0.000905   0.000022
    13  C    4.891385   0.361522   0.462581  -0.043084
    14  H    0.361522   0.650007  -0.047776   0.009286
    15  C    0.462581  -0.047776   4.859611   0.364238
    16  H   -0.043084   0.009286   0.364238   0.652068
 Mulliken charges:
               1
     1  C   -0.083121
     2  C   -0.044629
     3  C   -0.073172
     4  C   -0.039408
     5  C   -0.062401
     6  C   -0.033187
     7  H    0.037296
     8  H    0.043757
     9  H    0.034047
    10  H    0.045085
    11  H    0.067547
    12  H    0.054059
    13  C   -0.034099
    14  H    0.049765
    15  C   -0.005316
    16  H    0.043778
 Sum of Mulliken charges =   0.00000
 Mulliken charges with hydrogens summed into heavy atoms:
               1
     1  C   -0.045825
     2  C   -0.000872
     3  C   -0.028088
     4  C   -0.005361
     5  C    0.005145
     6  C    0.020872
    13  C    0.015666
    15  C    0.038462
 Electronic spatial extent (au):  <R**2>=            832.1298
 Charge=              0.0000 electrons
 Dipole moment (field-independent basis, Debye):
    X=             -0.8962    Y=              0.3301    Z=              0.5886  Tot=              1.1219
 Quadrupole moment (field-independent basis, Debye-Ang):
   XX=            -52.2068   YY=            -53.7945   ZZ=            -47.3459
   XY=             -0.4949   XZ=              2.2470   YZ=             -1.2583
 Traceless Quadrupole moment (field-independent basis, Debye-Ang):
   XX=             -1.0910   YY=             -2.6788   ZZ=              3.7698
   XY=             -0.4949   XZ=              2.2470   YZ=             -1.2583
 Octapole moment (field-independent basis, Debye-Ang**2):
  XXX=             -8.1830  YYY=              5.1951  ZZZ=              1.9009  XYY=             -4.8709
  XXY=              4.2194  XXZ=              1.1766  XZZ=              0.4333  YZZ=             -1.6708
  YYZ=              1.3092  XYZ=             -1.6708
 Hexadecapole moment (field-independent basis, Debye-Ang**3):
 XXXX=           -664.8619 YYYY=           -483.8410 ZZZZ=           -128.4478 XXXY=              3.8001
 XXXZ=             26.4357 YYYX=            -13.8684 YYYZ=             -3.9881 ZZZX=              3.7756
 ZZZY=             -5.9964 XXYY=           -188.6723 XXZZ=           -128.9275 YYZZ=           -100.1521
 XXYZ=              2.4494 YYXZ=             -1.1736 ZZXY=              2.0505
 N-N= 3.183660823355D+02 E-N=-1.351319819400D+03  KE= 3.057475823335D+02
 Calling FoFJK, ICntrl=      2127 FMM=F ISym2X=0 I1Cent= 0 IOpClX= 0 NMat=1 NMatS=1 NMatT=0.
 ***** Axes restored to original set *****
 -------------------------------------------------------------------
 Center     Atomic                   Forces (Hartrees/Bohr)
 Number     Number              X              Y              Z
 -------------------------------------------------------------------
      1        6          -0.030114288    0.051334963    0.066067690
      2        6           0.026539154    0.096175792   -0.012540721
      3        6          -0.023307044   -0.089291223   -0.007908550
      4        6          -0.081267111   -0.039283499   -0.079475634
      5        6          -0.000452269   -0.068543834   -0.075069864
      6        6          -0.002235410    0.063588974    0.084148806
      7        1          -0.004451231    0.001774424   -0.014494681
      8        1           0.016114312   -0.020283410    0.016251174
      9        1           0.017307091   -0.018297325    0.006120097
     10        1          -0.011971675    0.020243482   -0.013622988
     11        1           0.015480200    0.011336509    0.025942857
     12        1           0.005976491   -0.004332285   -0.035408099
     13        6           0.075128981   -0.013587033   -0.016553009
     14        1          -0.036802873   -0.011284592   -0.013435290
     15        6           0.056471134    0.002474467    0.082138199
     16        1          -0.022415463    0.017974590   -0.012159988
 -------------------------------------------------------------------
 Cartesian Forces:  Max     0.096175792 RMS     0.042360851

 GradGradGradGradGradGradGradGradGradGradGradGradGradGradGradGradGradGrad
 Berny optimization.
 FormGI is forming the generalized inverse of G from B-inverse, IUseBI=4.
 Internal  Forces:  Max     0.091395199 RMS     0.023283914
 Search for a local minimum.
 Step number   1 out of a maximum of   82
 All quantities printed in internal units (Hartrees-Bohrs-Radians)
 Mixed Optimization -- RFO/linear search
 Second derivative matrix not updated -- first step.
 ITU=  0
     Eigenvalues ---    0.00567   0.00579   0.00991   0.01159   0.01272
     Eigenvalues ---    0.02469   0.02580   0.03029   0.03061   0.03130
     Eigenvalues ---    0.03968   0.04371   0.06865   0.08815   0.09090
     Eigenvalues ---    0.09552   0.12480   0.12514   0.12725   0.12778
     Eigenvalues ---    0.12821   0.14610   0.17431   0.22913   0.23333
     Eigenvalues ---    0.23420   0.29402   0.29437   0.30412   0.30608
     Eigenvalues ---    0.30609   0.30860   0.30940   0.30940   0.31109
     Eigenvalues ---    0.31138   0.31138   0.31220   0.31220   0.31221
     Eigenvalues ---    0.31497   0.31497
 RFO step:  Lambda=-1.27883138D-01 EMin= 5.66519411D-03
 Linear search not attempted -- first point.
 Maximum step size (   0.300) exceeded in Quadratic search.
    -- Step size scaled by   0.629
 Iteration  1 RMS(Cart)=  0.04985794 RMS(Int)=  0.00185443
 Iteration  2 RMS(Cart)=  0.00204853 RMS(Int)=  0.00059818
 Iteration  3 RMS(Cart)=  0.00000218 RMS(Int)=  0.00059818
 Iteration  4 RMS(Cart)=  0.00000000 RMS(Int)=  0.00059818
 Variable       Old X    -DE/DX   Delta X   Delta X   Delta X     New X
                                 (Linear)    (Quad)   (Total)
    R1        2.86127  -0.00035   0.00000  -0.00026  -0.00037   2.86089
    R2        2.12450  -0.01109   0.00000  -0.01588  -0.01588   2.10862
    R3        2.86127  -0.07234   0.00000  -0.10515  -0.10516   2.75612
    R4        2.86768  -0.09140   0.00000  -0.13170  -0.13179   2.73589
    R5        2.12294  -0.01137   0.00000  -0.01625  -0.01625   2.10669
    R6        2.86126  -0.00219   0.00000  -0.00339  -0.00328   2.85799
    R7        2.12294  -0.01021   0.00000  -0.01459  -0.01459   2.10835
    R8        2.86768  -0.08481   0.00000  -0.12373  -0.12363   2.74404
    R9        2.86765  -0.01099   0.00000  -0.01456  -0.01465   2.85301
   R10        2.11775  -0.01529   0.00000  -0.02172  -0.02172   2.09603
   R11        2.86128  -0.06772   0.00000  -0.09634  -0.09633   2.76495
   R12        2.12450  -0.01012   0.00000  -0.01449  -0.01449   2.11001
   R13        2.12505  -0.00702   0.00000  -0.01007  -0.01007   2.11499
   R14        2.12293  -0.01272   0.00000  -0.01818  -0.01818   2.10475
   R15        2.86766  -0.04088   0.00000  -0.06062  -0.06054   2.80712
   R16        2.11774  -0.01484   0.00000  -0.02108  -0.02108   2.09666
    A1        1.89766   0.01976   0.00000   0.06062   0.06032   1.95797
    A2        2.04490  -0.00238   0.00000  -0.01106  -0.01149   2.03340
    A3        1.87749  -0.00189   0.00000   0.00939   0.00876   1.88625
    A4        2.01666  -0.00476   0.00000  -0.00978  -0.01070   2.00595
    A5        1.89789   0.02033   0.00000   0.06143   0.06101   1.95890
    A6        1.91969   0.00168   0.00000   0.01801   0.01714   1.93683
    A7        1.89788   0.01629   0.00000   0.04954   0.04920   1.94708
    A8        2.01669  -0.00005   0.00000  -0.00570  -0.00587   2.01082
    A9        1.91967  -0.00071   0.00000   0.01287   0.01213   1.93180
   A10        1.97175   0.00758   0.00000   0.02586   0.02514   1.99689
   A11        1.92317  -0.00069   0.00000   0.00527   0.00406   1.92722
   A12        1.92318   0.01078   0.00000   0.03381   0.03312   1.95630
   A13        2.04489  -0.00305   0.00000  -0.00763  -0.00779   2.03711
   A14        1.89767   0.01890   0.00000   0.05722   0.05654   1.95421
   A15        1.87749   0.00086   0.00000   0.01725   0.01628   1.89377
   A16        2.01672  -0.00569   0.00000  -0.00623  -0.00755   2.00918
   A17        1.89653   0.02203   0.00000   0.07080   0.06889   1.96542
   A18        1.87625   0.01133   0.00000   0.04797   0.04580   1.92205
   A19        1.89785   0.00769   0.00000   0.02713   0.02687   1.92473
   A20        2.01673  -0.01052   0.00000  -0.02740  -0.02721   1.98952
   A21        1.91966   0.01478   0.00000   0.04792   0.04780   1.96746
   A22        1.97175   0.00623   0.00000   0.01985   0.01928   1.99103
   A23        1.92317   0.00034   0.00000   0.00913   0.00768   1.93085
   A24        1.92317   0.01397   0.00000   0.04246   0.04166   1.96483
    D1       -1.47312  -0.00045   0.00000  -0.00094  -0.00087  -1.47399
    D2        2.64213  -0.01562   0.00000  -0.06738  -0.06798   2.57415
    D3        0.65896   0.01149   0.00000   0.05328   0.05382   0.71278
    D4       -1.50898  -0.00368   0.00000  -0.01316  -0.01329  -1.52227
    D5       -1.50979  -0.03385   0.00000  -0.13333  -0.13318  -1.64296
    D6        0.65812  -0.01572   0.00000  -0.06780  -0.06758   0.59054
    D7        0.63268  -0.01084   0.00000  -0.05302  -0.05311   0.57958
    D8        2.80059   0.00729   0.00000   0.01251   0.01249   2.81308
    D9       -1.90164  -0.01976   0.00000  -0.06382  -0.06383  -1.96547
   D10        0.25787  -0.00070   0.00000   0.00308   0.00307   0.26094
   D11        0.25489   0.00527   0.00000   0.02582   0.02573   0.28062
   D12        2.41440   0.02432   0.00000   0.09272   0.09263   2.50703
   D13        1.50906   0.00618   0.00000   0.02323   0.02323   1.53229
   D14       -2.64205   0.02062   0.00000   0.08763   0.08827  -2.55377
   D15       -0.65887  -0.00600   0.00000  -0.02977  -0.03040  -0.68927
   D16        1.47321   0.00844   0.00000   0.03464   0.03464   1.50785
   D17        1.90159   0.02238   0.00000   0.06877   0.06906   1.97065
   D18       -0.25791  -0.00064   0.00000  -0.00798  -0.00785  -0.26575
   D19       -0.25494   0.00117   0.00000  -0.00382  -0.00366  -0.25860
   D20       -2.41443  -0.02185   0.00000  -0.08057  -0.08057  -2.49500
   D21        1.90117  -0.00902   0.00000  -0.04129  -0.04160   1.85957
   D22       -2.27221   0.01856   0.00000   0.07058   0.07154  -2.20067
   D23       -0.25833  -0.02175   0.00000  -0.09247  -0.09357  -0.35190
   D24        1.85148   0.00583   0.00000   0.01940   0.01957   1.87105
   D25       -0.65818   0.02599   0.00000   0.08763   0.08772  -0.57046
   D26       -2.77892  -0.00723   0.00000  -0.03584  -0.03621  -2.81513
   D27       -2.80066   0.00234   0.00000   0.00303   0.00322  -2.79744
   D28        1.36179  -0.03088   0.00000  -0.12045  -0.12071   1.24108
   D29       -1.90117  -0.00700   0.00000  -0.01342  -0.01400  -1.91517
   D30        0.25832   0.00851   0.00000   0.04498   0.04545   0.30378
   D31        0.25533   0.00741   0.00000   0.04135   0.04093   0.29626
   D32        2.41482   0.02292   0.00000   0.09974   0.10039   2.51521
         Item               Value     Threshold  Converged?
 Maximum Force            0.091395     0.000450     NO 
 RMS     Force            0.023284     0.000300     NO 
 Maximum Displacement     0.162301     0.001800     NO 
 RMS     Displacement     0.050056     0.001200     NO 
 Predicted change in Energy=-6.860798D-02
 GradGradGradGradGradGradGradGradGradGradGradGradGradGradGradGradGradGrad

                          Input orientation:                          
 ---------------------------------------------------------------------
 Center     Atomic      Atomic             Coordinates (Angstroms)
 Number     Number       Type             X           Y           Z
 ---------------------------------------------------------------------
      1          6           0       -1.318421    1.185932    0.030605
      2          6           0        0.194510    1.210636   -0.018213
      3          6           0       -0.686841    4.571183    0.004974
      4          6           0        0.814732    2.235272    0.795102
      5          6           0        0.824861    4.607545   -0.022012
      6          6           0        1.514560    3.317515    0.008766
      7          1           0       -1.702393    0.603893    0.901745
      8          1           0        0.582458    1.241254   -1.062899
      9          1           0        0.083235    2.651413    1.517594
     10          1           0       -1.077976    4.555584    1.049738
     11          1           0        1.213125    5.196415   -0.887583
     12          1           0        2.579507    3.457603    0.323217
     13          6           0       -1.991240    2.479889    0.018995
     14          1           0       -2.202951    2.814252    1.060100
     15          6           0       -1.294388    3.515779   -0.785950
     16          1           0       -0.556253    3.081796   -1.491513
 ---------------------------------------------------------------------
                    Distance matrix (angstroms):
                    1          2          3          4          5
     1  C    0.000000
     2  C    1.513919   0.000000
     3  C    3.443759   3.474276   0.000000
     4  C    2.497180   1.447770   2.887128   0.000000
     5  C    4.037804   3.454902   1.512381   2.509075   0.000000
     6  C    3.545405   2.486403   2.533351   1.509745   1.463150
     7  H    1.115835   2.193787   4.192247   3.001448   4.823854
     8  H    2.193662   1.114814   3.720202   2.119950   3.531872
     9  H    2.514639   2.108773   2.562530   1.109170   2.597470
    10  H    3.528597   3.734758   1.115689   3.005168   2.184523
    11  H    4.830711   4.204738   2.190307   3.429069   1.116570
    12  H    4.521056   3.294487   3.465598   2.197998   2.126107
    13  C    1.458474   2.527823   2.464785   2.921585   3.529735
    14  H    2.119829   3.079311   2.549253   3.084129   3.681646
    15  C    2.468913   2.849548   1.452085   2.930497   2.503352
    16  H    2.547949   2.497098   2.115372   2.797286   2.528798
                    6          7          8          9         10
     6  C    0.000000
     7  H    4.302318   0.000000
     8  H    2.515579   3.080033   0.000000
     9  H    2.183792   2.785691   2.982737   0.000000
    10  H    3.055762   4.003456   4.266739   2.278853   0.000000
    11  H    2.103467   5.726535   4.008962   3.679479   3.068065
    12  H    1.119203   5.178129   3.289638   2.882335   3.887233
    13  C    3.604491   2.093333   3.054281   2.564892   2.490982
    14  H    3.895954   2.271853   3.839264   2.337191   2.073141
    15  C    2.925931   3.390260   2.961878   2.819804   2.120797
    16  H    2.568008   3.630610   2.206348   3.106268   2.983656
                   11         12         13         14         15
    11  H    0.000000
    12  H    2.521211   0.000000
    13  C    4.297599   4.684037   0.000000
    14  H    4.597581   4.881475   1.113786   0.000000
    15  C    3.020346   4.029975   1.485465   2.173828   0.000000
    16  H    2.822595   3.642453   2.168666   3.048593   1.109506
                   16
    16  H    0.000000
 Stoichiometry    C8H8
 Framework group  C1[X(C8H8)]
 Deg. of freedom    42
 Full point group                 C1      NOp   1
 Largest Abelian subgroup         C1      NOp   1
 Largest concise Abelian subgroup C1      NOp   1
                         Standard orientation:                         
 ---------------------------------------------------------------------
 Center     Atomic      Atomic             Coordinates (Angstroms)
 Number     Number       Type             X           Y           Z
 ---------------------------------------------------------------------
      1          6           0        2.019259    0.196475   -0.094641
      2          6           0        1.059067    1.348792   -0.299936
      3          6           0       -1.025309   -1.379336    0.232319
      4          6           0       -0.102832    1.336309    0.563704
      5          6           0       -1.993179   -0.231585    0.050138
      6          6           0       -1.409930    1.094942   -0.152234
      7          1           0        2.741140    0.392009    0.733456
      8          1           0        0.761146    1.464538   -1.367951
      9          1           0        0.048234    0.630060    1.405517
     10          1           0       -0.737172   -1.506694    1.302609
     11          1           0       -2.722899   -0.427058   -0.772071
     12          1           0       -2.170870    1.887047    0.062605
     13          6           0        1.423062   -1.116271    0.125343
     14          1           0        1.325566   -1.318043    1.216353
     15          6           0        0.153529   -1.334685   -0.614380
     16          1           0        0.012854   -0.609705   -1.442400
 ---------------------------------------------------------------------
 Rotational constants (GHZ):           3.3760208           2.3521476           1.5650673
 Standard basis: CC-pVDZ (5D, 7F)
 There are   160 symmetry adapted cartesian basis functions of A   symmetry.
 There are   152 symmetry adapted basis functions of A   symmetry.
   152 basis functions,   320 primitive gaussians,   160 cartesian basis functions
    28 alpha electrons       28 beta electrons
       nuclear repulsion energy       324.9926396198 Hartrees.
 NAtoms=   16 NActive=   16 NUniq=   16 SFac= 1.00D+00 NAtFMM=   60 NAOKFM=F Big=F
 Integral buffers will be    131072 words long.
 Raffenetti 2 integral format.
 Two-electron integral symmetry is turned on.
 One-electron integrals computed using PRISM.
 NBasis=   152 RedAO= T EigKep=  2.53D-03  NBF=   152
 NBsUse=   152 1.00D-06 EigRej= -1.00D+00 NBFU=   152
 Initial guess from the checkpoint file:  "C8H8_opt.chk"
 B after Tr=     0.000000    0.000000    0.000000
         Rot=    0.999451   -0.008885   -0.005629   -0.031414 Ang=  -3.80 deg.
 ExpMin= 1.22D-01 ExpMax= 6.67D+03 ExpMxC= 2.28D+02 IAcc=2 IRadAn=         4 AccDes= 0.00D+00
 Harris functional with IExCor=  402 and IRadAn=       4 diagonalized for initial guess.
 HarFok:  IExCor=  402 AccDes= 0.00D+00 IRadAn=         4 IDoV= 1 UseB2=F ITyADJ=14
 ICtDFT=  3500011 ScaDFX=  1.000000  1.000000  1.000000  1.000000
 FoFCou: FMM=F IPFlag=           0 FMFlag=      100000 FMFlg1=           0
         NFxFlg=           0 DoJE=T BraDBF=F KetDBF=T FulRan=T
         wScrn=  0.000000 ICntrl=       500 IOpCl=  0 I1Cent=   200000004 NGrid=           0
         NMat0=    1 NMatS0=      1 NMatT0=    0 NMatD0=    1 NMtDS0=    0 NMtDT0=    0
 Petite list used in FoFCou.
 Requested convergence on RMS density matrix=1.00D-08 within 128 cycles.
 Requested convergence on MAX density matrix=1.00D-06.
 Requested convergence on             energy=1.00D-06.
 No special actions if energy rises.
 Integral accuracy reduced to 1.0D-05 until final iterations.
 Initial convergence to 1.0D-05 achieved.  Increase integral accuracy.
 SCF Done:  E(RB3LYP) =  -309.335882114     A.U. after   16 cycles
            NFock= 16  Conv=0.39D-08     -V/T= 2.0100
 Calling FoFJK, ICntrl=      2127 FMM=F ISym2X=0 I1Cent= 0 IOpClX= 0 NMat=1 NMatS=1 NMatT=0.
 ***** Axes restored to original set *****
 -------------------------------------------------------------------
 Center     Atomic                   Forces (Hartrees/Bohr)
 Number     Number              X              Y              Z
 -------------------------------------------------------------------
      1        6          -0.025327360    0.036195474    0.058917105
      2        6           0.017937259    0.071540652   -0.016337365
      3        6          -0.013641185   -0.068837594   -0.003069328
      4        6          -0.060006169   -0.031042521   -0.061308611
      5        6           0.000258078   -0.056677782   -0.068071256
      6        6           0.002609250    0.054502409    0.078402260
      7        1           0.000011168   -0.002199681   -0.011011199
      8        1           0.011079951   -0.019367669    0.011189465
      9        1           0.015452232   -0.011841725    0.008855353
     10        1          -0.008038228    0.019539147   -0.009880940
     11        1           0.011686918    0.014002657    0.023744639
     12        1           0.003104563   -0.005393547   -0.031119423
     13        6           0.056132296   -0.018751325   -0.013634073
     14        1          -0.034763850   -0.007815890   -0.013165982
     15        6           0.043721250    0.013674317    0.060100862
     16        1          -0.020216172    0.012473077   -0.013611508
 -------------------------------------------------------------------
 Cartesian Forces:  Max     0.078402260 RMS     0.034339858

 GradGradGradGradGradGradGradGradGradGradGradGradGradGradGradGradGradGrad
 Berny optimization.
 Using GEDIIS/GDIIS optimizer.
 FormGI is forming the generalized inverse of G from B-inverse, IUseBI=4.
 Internal  Forces:  Max     0.059796669 RMS     0.016753931
 Search for a local minimum.
 Step number   2 out of a maximum of   82
 All quantities printed in internal units (Hartrees-Bohrs-Radians)
 Mixed Optimization -- RFO/linear search
 Update second derivatives using D2CorX and points    1    2
 DE= -7.14D-02 DEPred=-6.86D-02 R= 1.04D+00
 TightC=F SS=  1.41D+00  RLast= 4.58D-01 DXNew= 5.0454D-01 1.3732D+00
 Trust test= 1.04D+00 RLast= 4.58D-01 DXMaxT set to 5.05D-01
 ITU=  1  0
 Use linear search instead of GDIIS.
 Linear search step of   0.573 exceeds DXMaxT=   0.505 but not scaled.
 Quartic linear search produced a step of  1.91884.
 Iteration  1 RMS(Cart)=  0.08809358 RMS(Int)=  0.01153867
 Iteration  2 RMS(Cart)=  0.01527350 RMS(Int)=  0.00358603
 Iteration  3 RMS(Cart)=  0.00007169 RMS(Int)=  0.00358523
 Iteration  4 RMS(Cart)=  0.00000009 RMS(Int)=  0.00358523
 Variable       Old X    -DE/DX   Delta X   Delta X   Delta X     New X
                                 (Linear)    (Quad)   (Total)
    R1        2.86089   0.00269  -0.00072   0.00000  -0.00145   2.85944
    R2        2.10862  -0.00745  -0.03047   0.00000  -0.03047   2.07815
    R3        2.75612  -0.04845  -0.20178   0.00000  -0.20201   2.55411
    R4        2.73589  -0.05980  -0.25289   0.00000  -0.25331   2.48258
    R5        2.10669  -0.00716  -0.03117   0.00000  -0.03117   2.07552
    R6        2.85799   0.00122  -0.00629   0.00000  -0.00555   2.85244
    R7        2.10835  -0.00671  -0.02800   0.00000  -0.02800   2.08035
    R8        2.74404  -0.05682  -0.23723   0.00000  -0.23683   2.50722
    R9        2.85301  -0.00447  -0.02810   0.00000  -0.02857   2.82444
   R10        2.09603  -0.00887  -0.04168   0.00000  -0.04168   2.05435
   R11        2.76495  -0.04894  -0.18484   0.00000  -0.18459   2.58036
   R12        2.11001  -0.00696  -0.02781   0.00000  -0.02781   2.08221
   R13        2.11499  -0.00646  -0.01931   0.00000  -0.01931   2.09567
   R14        2.10475  -0.00805  -0.03488   0.00000  -0.03488   2.06987
   R15        2.80712  -0.01746  -0.11616   0.00000  -0.11569   2.69143
   R16        2.09666  -0.00967  -0.04045   0.00000  -0.04045   2.05621
    A1        1.95797   0.01369   0.11574   0.00000   0.11379   2.07176
    A2        2.03340  -0.00285  -0.02205   0.00000  -0.02463   2.00877
    A3        1.88625   0.00271   0.01680   0.00000   0.01268   1.89893
    A4        2.00595  -0.00146  -0.02054   0.00000  -0.02613   1.97983
    A5        1.95890   0.01254   0.11706   0.00000   0.11475   2.07365
    A6        1.93683   0.00350   0.03288   0.00000   0.02748   1.96431
    A7        1.94708   0.00944   0.09440   0.00000   0.09247   2.03955
    A8        2.01082   0.00145  -0.01127   0.00000  -0.01248   1.99834
    A9        1.93180   0.00184   0.02327   0.00000   0.01852   1.95032
   A10        1.99689   0.00695   0.04824   0.00000   0.04395   2.04084
   A11        1.92722   0.00114   0.00778   0.00000   0.00127   1.92850
   A12        1.95630   0.00583   0.06355   0.00000   0.05997   2.01626
   A13        2.03711  -0.00277  -0.01494   0.00000  -0.01548   2.02163
   A14        1.95421   0.01377   0.10849   0.00000   0.10417   2.05838
   A15        1.89377   0.00365   0.03124   0.00000   0.02478   1.91855
   A16        2.00918  -0.00151  -0.01448   0.00000  -0.02286   1.98632
   A17        1.96542   0.01526   0.13219   0.00000   0.12047   2.08589
   A18        1.92205   0.01058   0.08789   0.00000   0.07435   1.99640
   A19        1.92473   0.00603   0.05157   0.00000   0.04915   1.97388
   A20        1.98952  -0.00711  -0.05221   0.00000  -0.05122   1.93830
   A21        1.96746   0.01057   0.09173   0.00000   0.09056   2.05802
   A22        1.99103   0.00680   0.03700   0.00000   0.03272   2.02375
   A23        1.93085  -0.00029   0.01473   0.00000   0.00686   1.93770
   A24        1.96483   0.00830   0.07994   0.00000   0.07586   2.04070
    D1       -1.47399  -0.00170  -0.00166   0.00000  -0.00130  -1.47528
    D2        2.57415  -0.01677  -0.13044   0.00000  -0.13419   2.43996
    D3        0.71278   0.01200   0.10327   0.00000   0.10642   0.81919
    D4       -1.52227  -0.00307  -0.02551   0.00000  -0.02648  -1.54875
    D5       -1.64296  -0.02965  -0.25554   0.00000  -0.25423  -1.89719
    D6        0.59054  -0.01587  -0.12968   0.00000  -0.12806   0.46248
    D7        0.57958  -0.01079  -0.10191   0.00000  -0.10267   0.47691
    D8        2.81308   0.00299   0.02396   0.00000   0.02350   2.83658
    D9       -1.96547  -0.01485  -0.12248   0.00000  -0.12228  -2.08775
   D10        0.26094  -0.00019   0.00590   0.00000   0.00572   0.26666
   D11        0.28062   0.00461   0.04937   0.00000   0.04851   0.32913
   D12        2.50703   0.01926   0.17775   0.00000   0.17651   2.68354
   D13        1.53229   0.00552   0.04457   0.00000   0.04478   1.57707
   D14       -2.55377   0.02086   0.16938   0.00000   0.17342  -2.38035
   D15       -0.68927  -0.00672  -0.05834   0.00000  -0.06194  -0.75121
   D16        1.50785   0.00862   0.06648   0.00000   0.06670   1.57455
   D17        1.97065   0.01580   0.13252   0.00000   0.13387   2.10452
   D18       -0.26575  -0.00099  -0.01506   0.00000  -0.01378  -0.27953
   D19       -0.25860  -0.00016  -0.00703   0.00000  -0.00608  -0.26468
   D20       -2.49500  -0.01696  -0.15460   0.00000  -0.15373  -2.64873
   D21        1.85957  -0.01111  -0.07982   0.00000  -0.08154   1.77803
   D22       -2.20067   0.01635   0.13727   0.00000   0.14250  -2.05816
   D23       -0.35190  -0.02362  -0.17955   0.00000  -0.18557  -0.53747
   D24        1.87105   0.00384   0.03754   0.00000   0.03848   1.90953
   D25       -0.57046   0.02174   0.16832   0.00000   0.16776  -0.40270
   D26       -2.81513  -0.00762  -0.06948   0.00000  -0.07109  -2.88622
   D27       -2.79744   0.00170   0.00618   0.00000   0.00692  -2.79052
   D28        1.24108  -0.02766  -0.23162   0.00000  -0.23194   1.00914
   D29       -1.91517  -0.00160  -0.02687   0.00000  -0.02998  -1.94515
   D30        0.30378   0.01112   0.08722   0.00000   0.08977   0.39355
   D31        0.29626   0.00988   0.07854   0.00000   0.07668   0.37294
   D32        2.51521   0.02259   0.19263   0.00000   0.19643   2.71164
         Item               Value     Threshold  Converged?
 Maximum Force            0.059797     0.000450     NO 
 RMS     Force            0.016754     0.000300     NO 
 Maximum Displacement     0.276317     0.001800     NO 
 RMS     Displacement     0.095859     0.001200     NO 
 Predicted change in Energy=-8.154854D-02
 GradGradGradGradGradGradGradGradGradGradGradGradGradGradGradGradGradGrad

                          Input orientation:                          
 ---------------------------------------------------------------------
 Center     Atomic      Atomic             Coordinates (Angstroms)
 Number     Number       Type             X           Y           Z
 ---------------------------------------------------------------------
      1          6           0       -1.312926    1.286054    0.092383
      2          6           0        0.191604    1.356857   -0.052540
      3          6           0       -0.676912    4.433625    0.019566
      4          6           0        0.747831    2.268861    0.712137
      5          6           0        0.826796    4.535710   -0.063263
      6          6           0        1.508952    3.356125    0.024774
      7          1           0       -1.737194    0.680969    0.906774
      8          1           0        0.628237    1.328588   -1.059940
      9          1           0        0.052150    2.597481    1.480156
     10          1           0       -1.125851    4.506098    1.022123
     11          1           0        1.258588    5.160508   -0.861555
     12          1           0        2.595202    3.468683    0.217735
     13          6           0       -1.948773    2.478249    0.058737
     14          1           0       -2.346614    2.780662    1.033423
     15          6           0       -1.200124    3.436737   -0.682405
     16          1           0       -0.484443    3.050756   -1.405440
 ---------------------------------------------------------------------
                    Distance matrix (angstroms):
                    1          2          3          4          5
     1  C    0.000000
     2  C    1.513151   0.000000
     3  C    3.212012   3.197815   0.000000
     4  C    2.365740   1.313725   2.682490   0.000000
     5  C    3.893957   3.241711   1.509444   2.397099   0.000000
     6  C    3.500395   2.395508   2.437014   1.494629   1.365470
     7  H    1.099711   2.257736   3.999221   2.955442   4.730121
     8  H    2.257824   1.098317   3.536948   2.009645   3.364286
     9  H    2.347166   1.976804   2.456883   1.087113   2.595948
    10  H    3.356798   3.578870   1.100872   2.934622   2.234227
    11  H    4.747007   4.032459   2.247420   3.331516   1.101857
    12  H    4.478063   3.210941   3.417180   2.257607   2.084410
    13  C    1.351577   2.418908   2.332951   2.782526   3.457139
    14  H    2.046441   3.106298   2.558925   3.152896   3.788594
    15  C    2.288768   2.580608   1.326762   2.665185   2.387359
    16  H    2.458461   2.270831   1.994997   2.571768   2.392880
                    6          7          8          9         10
     6  C    0.000000
     7  H    4.297889   0.000000
     8  H    2.462351   3.143666   0.000000
     9  H    2.194527   2.683941   2.897249   0.000000
    10  H    3.042915   3.875391   4.184302   2.289170   0.000000
    11  H    2.025848   5.671682   3.888484   3.675351   3.108383
    12  H    1.108983   5.197671   3.175124   2.969817   3.945822
    13  C    3.567588   1.998537   3.035480   2.457304   2.391126
    14  H    4.026651   2.190010   3.916685   2.446874   2.113650
    15  C    2.801016   3.226173   2.815977   2.636135   2.013569
    16  H    2.472325   3.540001   2.079252   2.969857   2.902152
                   11         12         13         14         15
    11  H    0.000000
    12  H    2.411157   0.000000
    13  C    4.281193   4.653381   0.000000
    14  H    4.717212   5.055716   1.095328   0.000000
    15  C    3.008113   3.900740   1.424242   2.165396   0.000000
    16  H    2.790165   3.506220   2.148450   3.080370   1.088099
                   16
    16  H    0.000000
 Stoichiometry    C8H8
 Framework group  C1[X(C8H8)]
 Deg. of freedom    42
 Full point group                 C1      NOp   1
 Largest Abelian subgroup         C1      NOp   1
 Largest concise Abelian subgroup C1      NOp   1
                         Standard orientation:                         
 ---------------------------------------------------------------------
 Center     Atomic      Atomic             Coordinates (Angstroms)
 Number     Number       Type             X           Y           Z
 ---------------------------------------------------------------------
      1          6           0        1.918601    0.345931   -0.077686
      2          6           0        0.808018    1.349866   -0.297565
      3          6           0       -0.772747   -1.385850    0.195448
      4          6           0       -0.195071    1.211029    0.539339
      5          6           0       -1.902110   -0.396361    0.040942
      6          6           0       -1.535059    0.915483   -0.053114
      7          1           0        2.685212    0.563879    0.680054
      8          1           0        0.474900    1.554341   -1.323978
      9          1           0        0.094094    0.584658    1.379493
     10          1           0       -0.462737   -1.630242    1.223108
     11          1           0       -2.687273   -0.620567   -0.698881
     12          1           0       -2.366604    1.635031    0.090503
     13          6           0        1.512715   -0.934868    0.069189
     14          1           0        1.621802   -1.305290    1.094193
     15          6           0        0.270671   -1.157009   -0.591451
     16          1           0        0.010499   -0.471137   -1.395099
 ---------------------------------------------------------------------
 Rotational constants (GHZ):           3.8336256           2.5070767           1.7050824
 Standard basis: CC-pVDZ (5D, 7F)
 There are   160 symmetry adapted cartesian basis functions of A   symmetry.
 There are   152 symmetry adapted basis functions of A   symmetry.
   152 basis functions,   320 primitive gaussians,   160 cartesian basis functions
    28 alpha electrons       28 beta electrons
       nuclear repulsion energy       339.4572058992 Hartrees.
 NAtoms=   16 NActive=   16 NUniq=   16 SFac= 1.00D+00 NAtFMM=   60 NAOKFM=F Big=F
 Integral buffers will be    131072 words long.
 Raffenetti 2 integral format.
 Two-electron integral symmetry is turned on.
 One-electron integrals computed using PRISM.
 NBasis=   152 RedAO= T EigKep=  1.82D-03  NBF=   152
 NBsUse=   152 1.00D-06 EigRej= -1.00D+00 NBFU=   152
 Initial guess from the checkpoint file:  "C8H8_opt.chk"
 B after Tr=     0.000000    0.000000    0.000000
         Rot=    0.998442   -0.015576   -0.010924   -0.052460 Ang=  -6.40 deg.
 ExpMin= 1.22D-01 ExpMax= 6.67D+03 ExpMxC= 2.28D+02 IAcc=2 IRadAn=         4 AccDes= 0.00D+00
 Harris functional with IExCor=  402 and IRadAn=       4 diagonalized for initial guess.
 HarFok:  IExCor=  402 AccDes= 0.00D+00 IRadAn=         4 IDoV= 1 UseB2=F ITyADJ=14
 ICtDFT=  3500011 ScaDFX=  1.000000  1.000000  1.000000  1.000000
 FoFCou: FMM=F IPFlag=           0 FMFlag=      100000 FMFlg1=           0
         NFxFlg=           0 DoJE=T BraDBF=F KetDBF=T FulRan=T
         wScrn=  0.000000 ICntrl=       500 IOpCl=  0 I1Cent=   200000004 NGrid=           0
         NMat0=    1 NMatS0=      1 NMatT0=    0 NMatD0=    1 NMtDS0=    0 NMtDT0=    0
 Petite list used in FoFCou.
 Requested convergence on RMS density matrix=1.00D-08 within 128 cycles.
 Requested convergence on MAX density matrix=1.00D-06.
 Requested convergence on             energy=1.00D-06.
 No special actions if energy rises.
 Integral accuracy reduced to 1.0D-05 until final iterations.
 Initial convergence to 1.0D-05 achieved.  Increase integral accuracy.
 SCF Done:  E(RB3LYP) =  -309.399253441     A.U. after   14 cycles
            NFock= 14  Conv=0.63D-08     -V/T= 2.0054
 Calling FoFJK, ICntrl=      2127 FMM=F ISym2X=0 I1Cent= 0 IOpClX= 0 NMat=1 NMatS=1 NMatT=0.
 ***** Axes restored to original set *****
 -------------------------------------------------------------------
 Center     Atomic                   Forces (Hartrees/Bohr)
 Number     Number              X              Y              Z
 -------------------------------------------------------------------
      1        6          -0.000945166   -0.027273513    0.045571113
      2        6          -0.021015145   -0.020692805   -0.056237417
      3        6           0.023002162    0.013873203    0.030902977
      4        6           0.007622197    0.023382665    0.008711791
      5        6          -0.015150038   -0.008027902   -0.055878246
      6        6           0.026814337    0.012654543    0.070448089
      7        1           0.006946564   -0.012475197   -0.003690242
      8        1           0.002937364   -0.019069265   -0.000933654
      9        1           0.011226653    0.001085028    0.017587371
     10        1          -0.001654228    0.020182032   -0.000347042
     11        1           0.005458678    0.020643671    0.018101833
     12        1           0.000777758   -0.008175589   -0.023505907
     13        6          -0.001166626   -0.002496700   -0.008318678
     14        1          -0.032095400   -0.000110546   -0.010605967
     15        6           0.003890188    0.005216590   -0.012696577
     16        1          -0.016649298    0.001283786   -0.019109445
 -------------------------------------------------------------------
 Cartesian Forces:  Max     0.070448089 RMS     0.022068829

 GradGradGradGradGradGradGradGradGradGradGradGradGradGradGradGradGradGrad
 Berny optimization.
 Using GEDIIS/GDIIS optimizer.
 FormGI is forming the generalized inverse of G from B-inverse, IUseBI=4.
 Internal  Forces:  Max     0.064407398 RMS     0.015174538
 Search for a local minimum.
 Step number   3 out of a maximum of   82
 All quantities printed in internal units (Hartrees-Bohrs-Radians)
 Mixed Optimization -- RFO/linear search
 Update second derivatives using D2CorX and points    2    3
 ITU=  0  1  0
 Use linear search instead of GDIIS.
     Eigenvalues ---    0.00565   0.00579   0.00875   0.00940   0.01005
     Eigenvalues ---    0.01560   0.01815   0.02085   0.02156   0.02244
     Eigenvalues ---    0.03298   0.03794   0.06212   0.09130   0.10220
     Eigenvalues ---    0.11225   0.13178   0.13391   0.13429   0.13507
     Eigenvalues ---    0.13743   0.14799   0.18078   0.22373   0.22731
     Eigenvalues ---    0.22799   0.28817   0.29215   0.30004   0.30468
     Eigenvalues ---    0.30618   0.30852   0.30899   0.31068   0.31124
     Eigenvalues ---    0.31138   0.31194   0.31220   0.31221   0.31450
     Eigenvalues ---    0.31496   0.45104
 RFO step:  Lambda=-7.62858964D-02 EMin= 5.65168385D-03
 Quartic linear search produced a step of -0.01977.
 Iteration  1 RMS(Cart)=  0.09801726 RMS(Int)=  0.01012200
 Iteration  2 RMS(Cart)=  0.00923454 RMS(Int)=  0.00284000
 Iteration  3 RMS(Cart)=  0.00010131 RMS(Int)=  0.00283807
 Iteration  4 RMS(Cart)=  0.00000010 RMS(Int)=  0.00283807
 Variable       Old X    -DE/DX   Delta X   Delta X   Delta X     New X
                                 (Linear)    (Quad)   (Total)
    R1        2.85944   0.01172   0.00003   0.02285   0.02258   2.88202
    R2        2.07815   0.00145   0.00060   0.00141   0.00201   2.08017
    R3        2.55411   0.04037   0.00399   0.06691   0.06987   2.62398
    R4        2.48258   0.06441   0.00501   0.11071   0.11640   2.59898
    R5        2.07552   0.00251   0.00062   0.00371   0.00433   2.07985
    R6        2.85244   0.00885   0.00011   0.01923   0.01963   2.87206
    R7        2.08035   0.00169   0.00055   0.00206   0.00262   2.08296
    R8        2.50722   0.05069   0.00468   0.08422   0.08816   2.59537
    R9        2.82444   0.01215   0.00056   0.02124   0.02231   2.84674
   R10        2.05435   0.00557   0.00082   0.00956   0.01038   2.06473
   R11        2.58036   0.02347   0.00365   0.03197   0.03664   2.61700
   R12        2.08221   0.00073   0.00055   0.00007   0.00062   2.08283
   R13        2.09567  -0.00416   0.00038  -0.00983  -0.00945   2.08623
   R14        2.06987   0.00219   0.00069   0.00298   0.00367   2.07354
   R15        2.69143   0.03808   0.00229   0.07676   0.07865   2.77007
   R16        2.05621   0.00129   0.00080   0.00095   0.00175   2.05796
    A1        2.07176   0.00207  -0.00225   0.03304   0.02780   2.09956
    A2        2.00877  -0.00429   0.00049  -0.00281  -0.00752   2.00126
    A3        1.89893   0.01159  -0.00025   0.07893   0.07737   1.97630
    A4        1.97983   0.00456   0.00052   0.01543   0.01356   1.99339
    A5        2.07365  -0.00367  -0.00227   0.01437   0.00857   2.08222
    A6        1.96431   0.00675  -0.00054   0.06212   0.05984   2.02415
    A7        2.03955  -0.00446  -0.00183   0.00787   0.00387   2.04342
    A8        1.99834  -0.00011   0.00025   0.00565   0.00482   2.00316
    A9        1.95032   0.00999  -0.00037   0.06055   0.05926   2.00958
   A10        2.04084   0.00640  -0.00087   0.04604   0.04546   2.08630
   A11        1.92850   0.00699  -0.00003   0.04213   0.04059   1.96909
   A12        2.01626  -0.00604  -0.00119  -0.01014  -0.01483   2.00144
   A13        2.02163   0.00104   0.00031   0.01327   0.01174   2.03337
   A14        2.05838   0.00186  -0.00206   0.04272   0.03485   2.09323
   A15        1.91855   0.00877  -0.00049   0.06844   0.06283   1.98138
   A16        1.98632   0.00889   0.00045   0.03250   0.02414   2.01046
   A17        2.08589   0.00052  -0.00238   0.05534   0.04090   2.12678
   A18        1.99640   0.00768  -0.00147   0.07950   0.06626   2.06266
   A19        1.97388   0.00144  -0.00097   0.02782   0.02649   2.00037
   A20        1.93830   0.00292   0.00101   0.00651   0.00347   1.94177
   A21        2.05802   0.00041  -0.00179   0.03471   0.03311   2.09114
   A22        2.02375   0.00988  -0.00065   0.05746   0.05630   2.08005
   A23        1.93770   0.00054  -0.00014   0.01186   0.01023   1.94793
   A24        2.04070  -0.00548  -0.00150  -0.00514  -0.00856   2.03214
    D1       -1.47528  -0.00603   0.00003  -0.02497  -0.02437  -1.49965
    D2        2.43996  -0.01839   0.00265  -0.16310  -0.15964   2.28032
    D3        0.81919   0.00979  -0.00210   0.13398   0.13238   0.95158
    D4       -1.54875  -0.00258   0.00052  -0.00416  -0.00289  -1.55164
    D5       -1.89719  -0.02079   0.00503  -0.23820  -0.23388  -2.13107
    D6        0.46248  -0.01589   0.00253  -0.15389  -0.15174   0.31073
    D7        0.47691  -0.01002   0.00203  -0.11117  -0.10785   0.36906
    D8        2.83658  -0.00512  -0.00046  -0.02685  -0.02572   2.81086
    D9       -2.08775  -0.00235   0.00242  -0.03447  -0.03415  -2.12190
   D10        0.26666   0.00266  -0.00011   0.04357   0.04398   0.31064
   D11        0.32913   0.00460  -0.00096   0.07491   0.07424   0.40337
   D12        2.68354   0.00961  -0.00349   0.15295   0.15237   2.83590
   D13        1.57707   0.00219  -0.00089   0.02581   0.02375   1.60082
   D14       -2.38035   0.01983  -0.00343   0.20234   0.19908  -2.18127
   D15       -0.75121  -0.00848   0.00122  -0.08461  -0.08431  -0.83552
   D16        1.57455   0.00917  -0.00132   0.09192   0.09102   1.66557
   D17        2.10452  -0.00162  -0.00265   0.02639   0.02486   2.12938
   D18       -0.27953  -0.00436   0.00027  -0.04060  -0.04002  -0.31955
   D19       -0.26468  -0.00536   0.00012  -0.05571  -0.05621  -0.32088
   D20       -2.64873  -0.00810   0.00304  -0.12270  -0.12108  -2.76981
   D21        1.77803  -0.01434   0.00161  -0.14160  -0.13901   1.63902
   D22       -2.05816   0.01268  -0.00282   0.12218   0.12026  -1.93790
   D23       -0.53747  -0.02573   0.00367  -0.24829  -0.24369  -0.78116
   D24        1.90953   0.00129  -0.00076   0.01549   0.01559   1.92511
   D25       -0.40270   0.01311  -0.00332   0.13461   0.13446  -0.26824
   D26       -2.88622  -0.00950   0.00141  -0.10649  -0.10514  -2.99136
   D27       -2.79052  -0.00042  -0.00014  -0.01927  -0.01910  -2.80961
   D28        1.00914  -0.02302   0.00459  -0.26038  -0.25870   0.75045
   D29       -1.94515   0.00976   0.00059   0.09299   0.09381  -1.85133
   D30        0.39355   0.01585  -0.00177   0.17376   0.17186   0.56541
   D31        0.37294   0.01551  -0.00152   0.17757   0.17654   0.54949
   D32        2.71164   0.02160  -0.00388   0.25834   0.25459   2.96623
         Item               Value     Threshold  Converged?
 Maximum Force            0.064407     0.000450     NO 
 RMS     Force            0.015175     0.000300     NO 
 Maximum Displacement     0.456669     0.001800     NO 
 RMS     Displacement     0.102765     0.001200     NO 
 Predicted change in Energy=-6.311807D-02
 GradGradGradGradGradGradGradGradGradGradGradGradGradGradGradGradGradGrad

                          Input orientation:                          
 ---------------------------------------------------------------------
 Center     Atomic      Atomic             Coordinates (Angstroms)
 Number     Number       Type             X           Y           Z
 ---------------------------------------------------------------------
      1          6           0       -1.328966    1.237712    0.148284
      2          6           0        0.176327    1.343432   -0.072740
      3          6           0       -0.655407    4.473021    0.028526
      4          6           0        0.799882    2.272877    0.726519
      5          6           0        0.856555    4.574232   -0.088120
      6          6           0        1.570155    3.401057    0.091515
      7          1           0       -1.729776    0.582631    0.936908
      8          1           0        0.580241    1.234570   -1.090747
      9          1           0        0.196450    2.562003    1.590269
     10          1           0       -1.095132    4.653278    1.023071
     11          1           0        1.306674    5.253727   -0.830070
     12          1           0        2.670338    3.464847    0.157132
     13          6           0       -2.017587    2.437717    0.030538
     14          1           0       -2.588273    2.726517    0.922119
     15          6           0       -1.219491    3.440841   -0.680469
     16          1           0       -0.545468    3.067497   -1.450070
 ---------------------------------------------------------------------
                    Distance matrix (angstroms):
                    1          2          3          4          5
     1  C    0.000000
     2  C    1.525102   0.000000
     3  C    3.306848   3.239810   0.000000
     4  C    2.436784   1.375319   2.728680   0.000000
     5  C    3.995591   3.301669   1.519829   2.441942   0.000000
     6  C    3.617759   2.490694   2.471073   1.506433   1.384858
     7  H    1.100776   2.287233   4.136975   3.049650   4.865457
     8  H    2.276022   1.100607   3.642412   2.104466   3.497849
     9  H    2.481926   2.061775   2.610879   1.092606   2.702183
    10  H    3.533556   3.711131   1.102257   3.057013   2.247238
    11  H    4.902260   4.140247   2.279573   3.400776   1.102185
    12  H    4.577624   3.282276   3.477576   2.289891   2.140255
    13  C    1.388551   2.453851   2.449081   2.906836   3.583220
    14  H    2.097907   3.247412   2.754043   3.423981   4.037508
    15  C    2.356394   2.591673   1.373412   2.724266   2.438323
    16  H    2.552786   2.321730   2.042995   2.679352   2.467960
                    6          7          8          9         10
     6  C    0.000000
     7  H    4.421284   0.000000
     8  H    2.659199   3.142067   0.000000
     9  H    2.199395   2.838157   3.016159   0.000000
    10  H    3.088625   4.120724   4.354614   2.522563   0.000000
    11  H    2.085936   5.844774   4.092589   3.786294   3.092466
    12  H    1.103983   5.317539   3.301491   2.998188   4.042398
    13  C    3.715324   2.084631   3.074663   2.711119   2.597066
    14  H    4.293882   2.309434   4.039432   2.868478   2.439686
    15  C    2.894765   3.323502   2.876629   2.816646   2.094640
    16  H    2.638864   3.643461   2.180815   3.170114   2.988856
                   11         12         13         14         15
    11  H    0.000000
    12  H    2.456469   0.000000
    13  C    4.440864   4.800798   0.000000
    14  H    4.962617   5.365009   1.097271   0.000000
    15  C    3.112949   3.979061   1.465860   2.225333   0.000000
    16  H    2.931626   3.616959   2.180816   3.149063   1.089027
                   16
    16  H    0.000000
 Stoichiometry    C8H8
 Framework group  C1[X(C8H8)]
 Deg. of freedom    42
 Full point group                 C1      NOp   1
 Largest Abelian subgroup         C1      NOp   1
 Largest concise Abelian subgroup C1      NOp   1
                         Standard orientation:                         
 ---------------------------------------------------------------------
 Center     Atomic      Atomic             Coordinates (Angstroms)
 Number     Number       Type             X           Y           Z
 ---------------------------------------------------------------------
      1          6           0        1.967485    0.392962   -0.025044
      2          6           0        0.820127    1.347627   -0.338285
      3          6           0       -0.798130   -1.403928    0.215393
      4          6           0       -0.246196    1.250371    0.524849
      5          6           0       -1.942985   -0.426860    0.004385
      6          6           0       -1.612007    0.917700   -0.016657
      7          1           0        2.743934    0.677421    0.701535
      8          1           0        0.572128    1.565592   -1.388200
      9          1           0        0.009587    0.744894    1.459118
     10          1           0       -0.576141   -1.700107    1.253646
     11          1           0       -2.769731   -0.687119   -0.676473
     12          1           0       -2.432289    1.656539   -0.022530
     13          6           0        1.602292   -0.944078    0.058822
     14          1           0        1.836229   -1.422402    1.018240
     15          6           0        0.302191   -1.180650   -0.575620
     16          1           0        0.059618   -0.553686   -1.432389
 ---------------------------------------------------------------------
 Rotational constants (GHZ):           3.6980521           2.3446019           1.6065162
 Standard basis: CC-pVDZ (5D, 7F)
 There are   160 symmetry adapted cartesian basis functions of A   symmetry.
 There are   152 symmetry adapted basis functions of A   symmetry.
   152 basis functions,   320 primitive gaussians,   160 cartesian basis functions
    28 alpha electrons       28 beta electrons
       nuclear repulsion energy       330.9543917330 Hartrees.
 NAtoms=   16 NActive=   16 NUniq=   16 SFac= 1.00D+00 NAtFMM=   60 NAOKFM=F Big=F
 Integral buffers will be    131072 words long.
 Raffenetti 2 integral format.
 Two-electron integral symmetry is turned on.
 One-electron integrals computed using PRISM.
 NBasis=   152 RedAO= T EigKep=  2.05D-03  NBF=   152
 NBsUse=   152 1.00D-06 EigRej= -1.00D+00 NBFU=   152
 Initial guess from the checkpoint file:  "C8H8_opt.chk"
 B after Tr=     0.000000    0.000000    0.000000
         Rot=    0.999960    0.005313    0.003627   -0.006220 Ang=   1.03 deg.
 ExpMin= 1.22D-01 ExpMax= 6.67D+03 ExpMxC= 2.28D+02 IAcc=2 IRadAn=         4 AccDes= 0.00D+00
 Harris functional with IExCor=  402 and IRadAn=       4 diagonalized for initial guess.
 HarFok:  IExCor=  402 AccDes= 0.00D+00 IRadAn=         4 IDoV= 1 UseB2=F ITyADJ=14
 ICtDFT=  3500011 ScaDFX=  1.000000  1.000000  1.000000  1.000000
 FoFCou: FMM=F IPFlag=           0 FMFlag=      100000 FMFlg1=           0
         NFxFlg=           0 DoJE=T BraDBF=F KetDBF=T FulRan=T
         wScrn=  0.000000 ICntrl=       500 IOpCl=  0 I1Cent=   200000004 NGrid=           0
         NMat0=    1 NMatS0=      1 NMatT0=    0 NMatD0=    1 NMtDS0=    0 NMtDT0=    0
 Petite list used in FoFCou.
 Requested convergence on RMS density matrix=1.00D-08 within 128 cycles.
 Requested convergence on MAX density matrix=1.00D-06.
 Requested convergence on             energy=1.00D-06.
 No special actions if energy rises.
 Integral accuracy reduced to 1.0D-05 until final iterations.
 Initial convergence to 1.0D-05 achieved.  Increase integral accuracy.
 SCF Done:  E(RB3LYP) =  -309.451890124     A.U. after   14 cycles
            NFock= 14  Conv=0.76D-08     -V/T= 2.0081
 Calling FoFJK, ICntrl=      2127 FMM=F ISym2X=0 I1Cent= 0 IOpClX= 0 NMat=1 NMatS=1 NMatT=0.
 ***** Axes restored to original set *****
 -------------------------------------------------------------------
 Center     Atomic                   Forces (Hartrees/Bohr)
 Number     Number              X              Y              Z
 -------------------------------------------------------------------
      1        6          -0.004345417    0.014261442    0.029661950
      2        6           0.000688722    0.020033810   -0.006066610
      3        6           0.005254608   -0.022416907    0.001868063
      4        6          -0.016537063   -0.011487965   -0.026311447
      5        6          -0.005025636   -0.028317528   -0.038443401
      6        6           0.002492728    0.019133817    0.039709890
      7        1           0.003568728   -0.006165202   -0.005802265
      8        1           0.001697537   -0.009056016    0.002900542
      9        1           0.005751648   -0.001470040    0.008018969
     10        1          -0.001089253    0.011673667   -0.003677611
     11        1           0.003392141    0.013622306    0.017281508
     12        1          -0.002576815   -0.004527964   -0.014691062
     13        6           0.029125272   -0.015254601   -0.000504868
     14        1          -0.022199586   -0.002065837   -0.013872354
     15        6           0.011404644    0.021079381    0.022144735
     16        1          -0.011602259    0.000957635   -0.012216040
 -------------------------------------------------------------------
 Cartesian Forces:  Max     0.039709890 RMS     0.015621560

 GradGradGradGradGradGradGradGradGradGradGradGradGradGradGradGradGradGrad
 Berny optimization.
 Using GEDIIS/GDIIS optimizer.
 FormGI is forming the generalized inverse of G from B-inverse, IUseBI=4.
 Internal  Forces:  Max     0.016727705 RMS     0.006324303
 Search for a local minimum.
 Step number   4 out of a maximum of   82
[...]
   zy        -0.459742D+01     -0.681268D+00     -0.758013D+00
   zz         0.601754D+02      0.891707D+01      0.992158D+01

 ----------------------------------------------------------------------

 Dipole orientation:
     6         -2.56196922          2.59644574          0.37599281
     6          0.25251946          2.83695368          0.14570404
     6         -0.96775385          8.20095209         -0.47498267
     6          1.56253647          4.50564664          1.55118302
     6          1.84682624          8.44125487         -0.70506163
     6          3.16926561          6.50985496          0.35371293
     1         -3.53143627          0.93171156          1.13371796
     1          1.00844988          2.37975365         -1.73574904
     1          0.76120739          5.02828321          3.39649679
     1         -1.72396794          8.65836679          1.40631822
     1          2.81641260         10.10631955         -1.46193943
     1          5.23490074          6.57385954          0.47374814
     6         -3.88433452          4.52770182         -0.68265495
     1         -5.95000730          4.46401783         -0.80235564
     6         -2.27745848          6.53176878         -1.88025237
     1         -1.47574610          6.00880209         -3.72528749

 Electric dipole moment (dipole orientation):
 (Debye = 10**-18 statcoulomb cm , SI units = C m)
                  (au)            (Debye)         (10**-30 SI)
   Tot        0.186737D-03      0.474638D-03      0.158322D-02
   x          0.000000D+00      0.000000D+00      0.000000D+00
   y          0.000000D+00      0.000000D+00      0.000000D+00
   z          0.186737D-03      0.474638D-03      0.158322D-02

 Dipole polarizability, Alpha (dipole orientation).
 (esu units = cm**3 , SI units = C**2 m**2 J**-1)
 Alpha(0;0):
               (au)            (10**-24 esu)      (10**-40 SI)
   iso        0.787761D+02      0.116734D+02      0.129884D+02
   aniso      0.359707D+02      0.533031D+01      0.593076D+01
   xx         0.903177D+02      0.133837D+02      0.148914D+02
   yx         0.122519D+02      0.181554D+01      0.202006D+01
   yy         0.839734D+02      0.124436D+02      0.138453D+02
   zx         0.668454D+01      0.990546D+00      0.110213D+01
   zy        -0.403723D+01     -0.598255D+00     -0.665649D+00
   zz         0.620372D+02      0.919296D+01      0.102285D+02

 ----------------------------------------------------------------------
 1\1\GINC-LSQC03\Freq\RB3LYP\CC-pVDZ\C8H8\QINGCHUN\16-Apr-2020\0\\#N Ge
 om=AllCheck Guess=TCheck SCRF=Check GenChk RB3LYP/CC-pVDZ Freq\\cc-pVD
 Z\\0,1\C,-1.3065791506,1.3569996523,0.4656509713\C,0.149149644,1.49588
 94047,0.1327621247\C,-0.5271975049,4.3449675278,0.0474049325\C,0.94750
 81806,2.3426093127,0.8103816925\C,0.9285950541,4.483743394,-0.28538686
 24\C,1.6993254203,3.4371905998,0.1132779077\H,-1.7583770255,0.45491221
 9,0.8924274736\H,0.3975316416,1.3063306025,-0.9218415979\H,0.672681855
 8,2.5676317147,1.8513848078\H,-0.7757393928,4.5346433035,1.1019569378\
 H,1.3805219578,5.385982964,-0.7117208244\H,2.7899921699,3.4718964097,0
 .0170346646\C,-2.0772611707,2.4034731758,0.0670428539\H,-3.1679209616,
 2.3689277297,0.1634725041\C,-1.3253772258,3.4979834746,-0.6301427174\H
 ,-1.0503292521,3.2727798751,-1.6710388685\\Version=ES64L-G16RevA.03\St
 ate=1-A\HF=-309.5135463\RMSD=5.240e-09\RMSF=1.520e-05\ZeroPoint=0.1294
 335\Thermal=0.1364664\Dipole=0.0000275,-0.0000095,0.0001845\DipoleDeri
 v=0.1188834,-0.0445785,-0.0333705,0.0901337,0.076618,-0.0722498,-0.104
 4388,-0.0902167,-0.1598186,0.1631871,0.0304795,0.062019,-0.1031255,-0.
 3766316,0.0049003,0.0114119,0.1599023,0.1439974,0.1631661,0.0304782,0.
 0619897,-0.1029545,-0.3768573,0.0050115,0.0116049,0.1600577,0.1439867,
 -0.3294956,0.0274875,-0.1736077,0.1671111,0.1676107,0.1185255,-0.10824
 27,-0.0254862,0.0918292,0.1188513,-0.0445639,-0.0333805,0.0901723,0.07
 674,-0.0721899,-0.104607,-0.0900732,-0.1599953,0.133891,0.1114294,-0.0
 333781,-0.0386002,0.0129631,-0.1286355,-0.0012013,-0.1395226,-0.110148
 8,-0.0098312,-0.0724328,0.0352409,-0.074627,-0.0486948,0.0689365,0.089
 5546,0.0682291,0.1061999,-0.0569003,0.019756,0.0062493,0.0216934,0.131
 93,0.0204569,0.0471604,-0.0804077,-0.0891185,0.1073474,-0.0198826,0.11
 42344,-0.0366807,-0.0378135,-0.0408612,0.0346455,0.0316014,-0.0836752,
 -0.0569233,0.0197656,0.0062665,0.0217,0.1319854,0.0204223,0.0471496,-0
 .0804813,-0.0890958,-0.0098641,-0.0724669,0.0352398,-0.0746542,-0.0487
 444,0.0689139,0.08955,0.0681461,0.1062768,-0.1270704,-0.0521532,0.0226
 261,-0.0259969,0.0739935,0.0288653,0.0311715,0.0758848,0.1007908,0.133
 8847,0.1113839,-0.0334373,-0.0385501,0.0130696,-0.1286168,-0.0012573,-
 0.1394067,-0.1101764,-0.1270663,-0.0521238,0.0226556,-0.0259724,0.0739
 953,0.028857,0.031191,0.0758809,0.1007771,-0.3293331,0.0272746,-0.1736
 187,0.1669809,0.1676646,0.1185506,-0.1083837,-0.0257151,0.0917936,0.10
 72734,-0.0198532,0.1142714,-0.0366298,-0.0378286,-0.0408866,0.0346915,
 0.0316073,-0.083623\Polar=91.7370378,11.366349,84.4158144,2.8419395,-4
 .5974241,60.175359\Quadrupole=0.988237,-0.743503,-0.2447339,2.3229906,
 -0.7889591,0.3106522\PG=C01 [X(C8H8)]\NImag=0\\0.55225975,-0.05201647,
 0.65253180,-0.03356613,-0.22119359,0.24688576,-0.20092096,-0.00747671,
 0.02959294,0.53635833,-0.02069240,-0.06492546,0.00660329,0.19599488,0.
 34816618,0.04193204,0.00576530,-0.08458996,0.02984058,0.18940073,0.575
 58260,-0.00168185,0.00191766,-0.00252661,-0.00353446,0.00251795,-0.004
 54537,0.53622215,0.00322650,-0.00044727,-0.00075141,0.00252895,-0.0112
 0651,0.00541431,0.19593984,0.34824734,-0.00043714,0.00372830,-0.003127
 08,-0.00454834,0.00540956,-0.00149794,0.02975149,0.18944831,0.57548618
 ,-0.01777575,-0.02013836,-0.01023893,-0.21394412,-0.17854111,-0.112923
 24,-0.00550324,0.00380774,-0.00028173,0.40238134,-0.01511490,-0.009159
 10,-0.00370752,-0.19415408,-0.21562278,-0.15821139,0.00301312,-0.00689
 964,0.00207959,0.24324417,0.46685022,0.00369870,0.00052483,0.01184759,
 -0.11457871,-0.14790571,-0.20142087,0.00161647,-0.00008422,-0.00846309
 ,0.00994555,0.14661580,0.59082364,-0.00567196,0.00410481,-0.00267848,-
 0.00168660,0.00322757,-0.00044392,-0.20087404,-0.02067286,0.04192168,0
 .01580583,-0.00773866,0.00222317,0.55214797,0.00410345,0.00342131,-0.0
 0245531,0.00192255,-0.00045222,0.00372716,-0.00746990,-0.06492864,0.00
 575052,0.00182521,-0.03212213,0.01806206,-0.05182667,0.65243461,-0.002
 68067,-0.00245488,0.00226609,-0.00252947,-0.00075006,-0.00312768,0.029
 57561,0.00658375,-0.08457471,0.00132009,0.02378237,-0.00358553,-0.0335
 6259,-0.22100420,0.24675963,-0.00217026,-0.01240481,0.00604921,-0.0172
 0480,-0.01662886,-0.00044684,-0.03724435,0.02111073,-0.00504251,-0.105
 30927,-0.04289748,0.03925283,-0.21765787,0.17759407,-0.06505438,0.6987
 3360,-0.00705500,0.00517144,-0.00340632,-0.02017169,-0.00805810,0.0065
 3027,0.01470465,0.00905611,-0.00269965,-0.05914736,-0.14082223,0.04984
 948,0.15565800,-0.31610913,0.09602714,-0.10284558,0.52062804,0.0026533
 5,-0.00157177,-0.00163358,-0.00900335,-0.00579177,0.01018492,0.0041103
 1,-0.00234820,0.00829880,0.04368035,0.04315042,-0.10426491,-0.06116623
 ,0.10210214,-0.09446969,-0.01004910,-0.17654140,0.23202208,-0.09772199
 ,-0.09766762,0.05048500,-0.00589436,-0.01909825,0.00724866,0.00010426,
 0.00053002,-0.00084498,-0.00317611,0.00021388,0.00168145,0.00013834,-0
 .00057399,0.00073542,-0.00102785,0.00094986,-0.00095918,0.10045926,-0.
 08869052,-0.23796411,0.09590935,-0.00024230,0.00404784,-0.00065294,0.0
 0085051,0.00048770,0.00050418,0.00064462,0.00035446,0.00062303,-0.0000
 6156,0.00043009,-0.00021280,-0.00031486,-0.00044933,0.00012133,0.09908
 332,0.25006634,0.04896631,0.09417522,-0.07797471,-0.00049096,0.0028954
 9,0.00303936,0.00182455,0.00026520,-0.00027776,-0.00060969,0.00094816,
 -0.00085869,0.00025204,-0.00065286,0.00068502,0.00078089,0.00006272,-0
 .00020392,-0.05162742,-0.10707762,0.07146647,-0.01031144,0.00393869,0.
 02436181,-0.05955991,0.00790415,0.06124492,0.00084235,-0.00017356,-0.0
 0066134,0.00497277,-0.00469527,-0.02275277,0.00037798,0.00048597,0.000
 16466,-0.00183897,0.00216064,-0.00077816,-0.00172704,0.00020650,0.0007
 0302,0.06762895,0.00112414,0.00409160,0.00662906,-0.00118516,-0.046145
 11,-0.03736243,-0.00057187,0.00060908,-0.00062534,0.00514915,0.0007497
 0,-0.01700150,-0.00074701,-0.00122142,0.00059601,0.00592236,-0.0012088
 4,-0.00057455,-0.00095457,-0.00128830,-0.00134226,-0.00144811,0.038196
 37,0.00219796,-0.00142794,-0.00439031,0.05701085,-0.04829482,-0.292272
 10,0.00025244,0.00047970,0.00063331,0.00460997,-0.00348717,-0.01768775
 ,0.00033410,0.00019013,0.00045991,-0.00197973,0.00281848,0.00081167,0.
 00113240,-0.00037746,-0.00042824,-0.06215368,0.05457225,0.31248434,0.0
 0112802,0.00426203,-0.00314831,0.00749595,-0.00362320,-0.01564133,0.00
 165649,0.00085783,0.00011756,-0.06226225,0.00709160,0.07582319,-0.0018
 3765,0.00092515,0.00089527,-0.00178785,0.00319858,0.01680969,0.0009039
 1,-0.00019350,-0.00034582,0.00198616,-0.00866129,0.00033078,0.05458039
 ,0.00173782,-0.00385436,0.00255496,0.00511416,-0.00532195,-0.02490082,
 -0.00171154,0.00007406,0.00250587,0.00904798,-0.05395384,-0.05364519,-
 0.00064118,-0.00124553,0.00044372,-0.00717847,0.00060744,0.01859304,-0
 .00099990,-0.00008093,0.00004717,-0.00645854,0.00475373,-0.00492574,-0
 .00023122,0.05900769,0.00129782,0.00154906,0.00048484,0.00565786,-0.00
 257824,-0.01414784,-0.00017532,-0.00086719,-0.00037232,0.06137978,-0.0
 5645198,-0.28172581,0.00267194,-0.00018557,0.00090012,0.00441580,0.001
 19332,-0.00944280,-0.00005037,0.00001966,-0.00018910,-0.00081796,-0.00
 450879,0.00023622,-0.07303286,0.06067694,0.30471567,0.00037723,0.00048
 566,0.00016440,0.00084212,-0.00017278,-0.00066177,-0.05957478,0.007917
 19,0.06127512,-0.00050628,0.00020154,0.00252790,-0.01031345,0.00394635
 ,0.02435658,-0.00149624,-0.00152705,0.00072315,0.00012490,0.00002008,-
 0.00012632,-0.00015508,-0.00002270,0.00007453,0.00016371,0.00055963,-0
 .00063785,0.06763893,-0.00074480,-0.00122109,0.00059762,-0.00057107,0.
 00060669,-0.00062342,-0.00117785,-0.04615369,-0.03738412,0.00107666,0.
 00117057,-0.00084350,0.00113063,0.00408791,0.00662626,0.00035992,0.000
 08123,0.00143938,0.00002886,-0.00014230,0.00030662,-0.00002282,0.00005
 897,-0.00016083,-0.00014217,-0.00010038,0.00033157,-0.00146274,0.03820
 902,0.00033372,0.00019053,0.00045938,0.00025243,0.00047987,0.00063258,
 0.05704486,-0.04832263,-0.29223749,-0.00163311,-0.00075045,0.00069817,
 0.00219228,-0.00142879,-0.00438520,-0.00020066,0.00269250,-0.00077427,
 0.00000802,-0.00017594,-0.00044984,0.00007407,-0.00016020,-0.00005533,
 0.00012536,-0.00034082,0.00023226,-0.06218690,0.05460991,0.31244078,0.
 00013796,-0.00057423,0.00073496,0.00010393,0.00053032,-0.00084442,-0.0
 0589960,-0.01910138,0.00723714,-0.00134437,0.00295798,0.00056943,-0.09
 774402,-0.09770637,0.05045318,0.00838686,0.01696252,-0.00774724,0.0000
 5495,-0.00004483,-0.00012622,0.00012495,0.00002896,0.00000809,-0.00005
 067,-0.00006534,-0.00013146,-0.00172576,-0.00095343,0.00113194,0.10048
 962,-0.00006109,0.00042982,-0.00021224,0.00085002,0.00048746,0.0005042
 1,-0.00024208,0.00404961,-0.00065350,0.00247532,-0.00045190,0.00382898
 ,-0.08873066,-0.23802640,0.09582855,-0.01268195,-0.01418426,0.01011589
 ,-0.00004487,-0.00003473,0.00005942,0.00002009,-0.00014223,-0.00017597
 ,-0.00087266,-0.00059403,0.00026567,0.00020561,-0.00128785,-0.00037669
 ,0.09912557,0.25012780,0.00025285,-0.00065398,0.00068563,0.00182534,0.
 00026480,-0.00027617,-0.00049689,0.00289675,0.00304195,-0.00191185,0.0
 0566573,0.00912690,0.04893928,0.09407813,-0.07787966,0.00452802,0.0094
 5231,0.00144492,-0.00012630,0.00005963,0.00002037,-0.00012652,0.000307
 74,-0.00045049,-0.00127949,-0.00147560,0.00041667,0.00070203,-0.001343
 67,-0.00042733,-0.05158876,-0.10698631,0.07136804,-0.00033061,-0.00084
 925,0.00012670,-0.00054620,0.00031112,0.00133809,-0.00040979,0.0024793
 7,-0.00089171,-0.00481195,-0.00063388,-0.00036856,-0.01353583,-0.00408
 701,0.00353806,-0.32747114,-0.00391101,0.02479034,-0.00023198,-0.00005
 403,0.00009691,-0.00031127,0.00034380,-0.00023862,-0.00120152,-0.00029
 906,-0.00005824,-0.00018881,-0.00027856,0.00013311,0.00100071,-0.00012
 623,-0.00064136,0.34743659,0.00096518,-0.00102587,-0.00020191,-0.00097
 050,-0.00243245,0.00210112,0.00236581,-0.00137787,0.00642772,-0.018560
 79,0.00187389,0.00097013,0.02577633,0.00260594,-0.00071014,-0.01260382
 ,-0.04509244,0.00878408,-0.00056122,0.00005585,-0.00001024,-0.00044661
 ,0.00067705,-0.00071119,-0.00177688,-0.00046043,0.00058158,-0.00070813
 ,-0.00027576,-0.00010453,-0.00076072,-0.00025365,-0.00331430,0.0070012
 4,0.04486268,-0.00016688,0.00091985,-0.00032449,0.00139334,0.00011838,
 -0.00070277,0.00002271,0.00344596,0.00912810,0.00980981,-0.00077181,0.
 00413836,-0.00816275,0.00039220,0.00658156,0.02704729,0.01105444,-0.04
 110759,0.00029742,-0.00001883,-0.00013246,0.00009577,-0.00070918,0.000
 26751,-0.00045254,0.00093814,-0.00178502,-0.00196631,-0.00075087,0.000
 23544,-0.00066836,-0.00294414,-0.00568768,-0.02810581,-0.01317372,0.02
 969652,-0.21774584,0.17774991,-0.06510608,-0.03725774,0.02111822,-0.00
 504612,-0.01719093,-0.01662523,-0.00044879,0.00017647,0.00336733,0.003
 24118,-0.00216970,-0.01240282,0.00605296,0.00675680,-0.00057428,-0.001
 61984,0.00838885,-0.01267919,0.00453480,-0.00149534,0.00036047,-0.0002
 0056,-0.00119983,0.00078174,-0.00075003,-0.00183834,0.00592180,-0.0019
 8179,-0.00102816,-0.00031502,0.00078041,0.00035621,-0.00100860,-0.0001
 6705,0.69880569,0.15582795,-0.31628276,0.09611676,0.01469846,0.0090545
 6,-0.00270256,-0.02016466,-0.00805885,0.00653922,0.00198998,-0.0041831
 4,0.00008122,-0.00705507,0.00516714,-0.00340686,-0.00057413,-0.0067644
 4,0.00242336,0.01696218,-0.01418216,0.00944771,-0.00152663,0.00007900,
 0.00269437,-0.00017564,0.00051120,0.00020880,0.00215945,-0.00120550,0.
 00281732,0.00094937,-0.00044875,0.00006288,-0.00021640,0.00082349,0.00
 025451,-0.10306943,0.52078364,-0.06121171,0.10217031,-0.09449737,0.004
 11182,-0.00234897,0.00830988,-0.00900791,-0.00578585,0.01018149,-0.001
 65042,-0.00057268,-0.00126712,0.00265470,-0.00157548,-0.00163153,-0.00
 161949,0.00242552,0.00002767,-0.00775078,0.01012836,0.00144907,0.00072
 061,0.00144232,-0.00077496,0.00012805,0.00032768,0.00030425,-0.0007779
 1,-0.00057298,0.00081044,-0.00095969,0.00012143,-0.00020458,0.00008034
 ,0.00034040,0.00006995,-0.01006491,-0.17661152,0.23204189,-0.01353622,
 -0.00408608,0.00354238,-0.00041047,0.00248087,-0.00088987,-0.00054507,
 0.00031102,0.00133727,0.00044601,0.00015895,0.00037146,-0.00033087,-0.
 00084909,0.00012629,0.00035635,-0.00021664,0.00008018,0.00100050,-0.00
 012746,-0.00064296,-0.00018912,-0.00027878,0.00013311,-0.00015054,0.00
 012972,-0.00013333,-0.00031144,0.00034378,-0.00023885,-0.00023190,-0.0
 0005397,0.00009715,-0.00004969,0.00003186,-0.00003699,-0.32745243,-0.0
 0386448,0.02483878,0.34741960,0.02577879,0.00260779,-0.00071334,0.0023
 6718,-0.00137751,0.00642900,-0.00096937,-0.00243209,0.00209917,0.00101
 811,0.00013669,-0.00081991,0.00096518,-0.00102512,-0.00020142,-0.00100
 802,0.00082343,0.00034074,-0.00076210,-0.00025523,-0.00331515,-0.00070
 818,-0.00027570,-0.00010472,0.00023829,-0.00006728,-0.00006495,-0.0004
 4644,0.00067645,-0.00071143,-0.00056120,0.00005563,-0.00001038,0.00003
 178,-0.00005029,-0.00009521,-0.01256145,-0.04509597,0.00878228,0.00695
 220,0.04485955,-0.00816078,0.00039735,0.00658739,0.00002355,0.00344742
 ,0.00912672,0.00139149,0.00011752,-0.00070361,0.00079822,0.00169895,-0
 .00027039,-0.00016754,0.00092028,-0.00032426,-0.00016627,0.00025329,0.
 00007004,-0.00067029,-0.00294755,-0.00568722,-0.00196556,-0.00075052,0
 .00023526,0.00026185,-0.00035929,-0.00024836,0.00009612,-0.00070976,0.
 00026794,0.00029755,-0.00001908,-0.00013239,-0.00003715,-0.00009510,0.
 00014092,0.02709703,0.01104890,-0.04111636,-0.02816049,-0.01317059,0.0
 2970871,0.01580444,0.00182719,0.00131178,-0.00549681,0.00380937,-0.000
 27592,-0.21386103,-0.17851252,-0.11284908,-0.00964514,0.00573575,-0.00
 266020,-0.01777407,-0.02014658,-0.01024064,0.00017491,0.00199174,-0.00
 165183,-0.00134460,0.00247612,-0.00191068,-0.00050868,0.00108116,-0.00
 163601,0.00049410,0.00036294,0.00036480,0.00497592,0.00515216,0.004612
 19,-0.00317831,0.00064535,-0.00060857,0.00044601,0.00101805,0.00079750
 ,-0.10531233,-0.05913748,0.04369758,-0.00481257,-0.01855727,0.00981216
 ,0.40232268,-0.00775029,-0.03212724,0.02379001,0.00300592,-0.00689119,
 0.00207080,-0.19412281,-0.21569082,-0.15822556,0.00574691,-0.00868132,
 0.00022729,-0.01512763,-0.00916299,-0.00370281,0.00336894,-0.00419125,
 -0.00057044,0.00296021,-0.00045101,0.00566531,0.00020363,0.00116752,-0
 .00074880,-0.00074809,0.00075955,-0.00021217,-0.00469748,0.00074590,-0
 .00349086,0.00021230,0.00035430,0.00094978,0.00015824,0.00013725,0.001
 70006,-0.04288108,-0.14081212,0.04314091,-0.00063281,0.00188082,-0.000
 77054,0.24318446,0.46693942,0.00221892,0.01806590,-0.00358063,0.001617
 33,-0.00008264,-0.00846677,-0.11449855,-0.14791282,-0.20137212,-0.0026
 6084,0.00022495,0.00208982,0.00369507,0.00052793,0.01184240,0.00323565
 ,0.00008012,-0.00126736,0.00057242,0.00383205,0.00912538,0.00252938,-0
 .00084455,0.00069788,-0.00059026,-0.00048297,0.00081934,-0.02274719,-0
 .01700937,-0.01768591,0.00168343,0.00062403,-0.00085740,0.00037128,-0.
 00081904,-0.00026995,0.03925968,0.04983563,-0.10426326,-0.00036509,0.0
 0097468,0.00413152,0.00980586,0.14666988,0.59075143,-0.00184053,0.0009
 2758,0.00089538,0.00165611,0.00086214,0.00011450,0.00749388,-0.0036236
 4,-0.01563465,0.00049607,-0.00075004,-0.00059109,0.00112593,0.00425968
 ,-0.00315039,-0.00119991,-0.00017737,0.00012756,-0.00005102,-0.0008729
 0,-0.00127846,0.00016370,-0.00014054,0.00012436,0.00008160,-0.00014874
 ,-0.00000059,0.00198737,-0.00866038,0.00033335,0.00090381,-0.00019342,
 -0.00034536,-0.00015073,0.00023880,0.00026285,-0.00179337,0.00319652,0
 .01681094,-0.00120215,-0.00177749,-0.00044988,-0.06228452,0.00711957,0
 .07587289,0.05461379,-0.00063836,-0.00124650,0.00044059,-0.00171062,0.
 00007055,0.00251066,0.00512055,-0.00532852,-0.02490428,0.00036176,0.00
 076053,-0.00048280,0.00173878,-0.00385342,0.00255538,0.00078196,0.0005
 1233,0.00032774,-0.00006581,-0.00059419,-0.00147490,0.00056005,-0.0001
 0141,-0.00034029,-0.00014882,-0.00003495,0.00004228,-0.00645819,0.0047
 4984,-0.00492778,-0.00099950,-0.00008084,0.00004651,0.00012989,-0.0000
 6741,-0.00035978,-0.00718237,0.00061465,0.01858829,-0.00029910,-0.0004
 6118,0.00093871,0.00906957,-0.05397682,-0.05368379,-0.00025977,0.05903
 733,0.00267164,-0.00018449,0.00090145,-0.00017521,-0.00086733,-0.00037
 396,0.00566071,-0.00257918,-0.01414372,0.00036603,-0.00021299,0.000819
 68,0.00129723,0.00155165,0.00048353,-0.00075071,0.00020778,0.00030402,
 -0.00013148,0.00026554,0.00041625,-0.00063825,0.00033193,0.00023308,-0
 .00000114,0.00004290,-0.00019812,-0.00081557,-0.00451283,0.00023840,-0
 .00004959,0.00001975,-0.00018879,-0.00013339,-0.00006486,-0.00024841,0
 .00441911,0.00119025,-0.00943946,-0.00005903,0.00058126,-0.00178592,0.
 06143106,-0.05649285,-0.28169436,-0.07309141,0.06072346,0.30467632\\-0
 .00002283,0.00002632,-0.00003351,-0.00000981,0.00002343,0.00000186,0.0
 0000407,0.00001303,0.00001303,0.00000830,-0.00000716,-0.00000198,-0.00
 001327,0.00003066,-0.00002072,0.00002519,-0.00003240,0.00001946,0.0000
 0564,0.00000189,0.00000043,-0.00000384,-0.00000852,0.00000147,-0.00000
 196,0.00000655,0.00000928,-0.00000352,-0.00000087,0.00000174,-0.000004
 51,0.00000594,0.00000857,-0.00000386,-0.00000745,-0.00000168,0.0000343
 6,-0.00004079,0.00001276,0.00000079,0.00000554,0.00000110,-0.00001707,
 -0.00000993,-0.00000645,0.00000229,-0.00000624,-0.00000535\\\@


 EXPERIENCE IS THE FRUIT OF THE TREE OF ERRORS.
 Job cpu time:       0 days  0 hours 23 minutes  0.4 seconds.
 Elapsed time:       0 days  0 hours  2 minutes 53.5 seconds.
 File lengths (MBytes):  RWF=     46 Int=      0 D2E=      0 Chk=      3 Scr=      1
 Normal termination of Gaussian 16 at Thu Apr 16 18:53:59 2020.
