Title section
Stability RHF                                                         CC-pVDZ
Number of atoms                            I               26
Info1-9                                    I   N=           9
          37          36           0           0           0         110
           7           1           2
Full Title                                 C   N=           2
Title section
Route                                      C   N=          11
#p int=(nobasistransform) nosymm pop=full punch=gamessinput
gfprint uhf/cc-pvdz 6D 10F guess=mix SCF=(xqc, maxcycle=500)
 stable=opt
Charge                                     I                0
Multiplicity                               I                1
Number of electrons                        I               86
Number of alpha electrons                  I               43
Number of beta electrons                   I               43
Number of basis functions                  I              250
Number of independent functions            I              250
Number of point charges in /Mol/           I                0
Number of translation vectors              I                0
Atomic numbers                             I   N=          26
           6           1           1           6           1           6
           1           6           1           6           1           6
           1           6           1           6           1           6
           1           6           1           6           1           6
           1           1
Nuclear charges                            R   N=          26
  6.00000000E+00  1.00000000E+00  1.00000000E+00  6.00000000E+00  1.00000000E+00
  6.00000000E+00  1.00000000E+00  6.00000000E+00  1.00000000E+00  6.00000000E+00
  1.00000000E+00  6.00000000E+00  1.00000000E+00  6.00000000E+00  1.00000000E+00
  6.00000000E+00  1.00000000E+00  6.00000000E+00  1.00000000E+00  6.00000000E+00
  1.00000000E+00  6.00000000E+00  1.00000000E+00  6.00000000E+00  1.00000000E+00
  1.00000000E+00
Current cartesian coordinates              R   N=          78
  0.00000000E+00  0.00000000E+00  0.00000000E+00  0.00000000E+00  0.00000000E+00
  2.06752745E+00  1.83481866E+00  0.00000000E+00 -9.42968669E-01 -2.17545396E+00
  0.00000000E+00 -1.32253545E+00 -2.09468803E+00  0.00000000E+00 -3.39363577E+00
 -4.67223077E+00  0.00000000E+00 -2.05458678E-01 -4.77482096E+00  0.00000000E+00
  1.86500250E+00 -6.85967752E+00  0.00000000E+00 -1.55553770E+00 -6.74686628E+00
  0.00000000E+00 -3.62593908E+00 -9.34654550E+00  0.00000000E+00 -4.60358506E-01
 -9.46406814E+00  0.00000000E+00  1.60929135E+00 -1.15357459E+01  0.00000000E+00
 -1.82012912E+00 -1.14165628E+01  0.00000000E+00 -3.88985836E+00 -1.40205345E+01
  0.00000000E+00 -7.29493810E-01 -1.41396953E+01  0.00000000E+00  1.34024069E+00
 -1.62097732E+01  0.00000000E+00 -2.08920068E+00 -1.60923451E+01  0.00000000E+00
 -4.15885300E+00 -1.86965804E+01  0.00000000E+00 -9.93881103E-01 -1.88092504E+01
  0.00000000E+00  1.07653154E+00 -2.08841399E+01  0.00000000E+00 -2.34377442E+00
 -2.07817592E+01  0.00000000E+00 -4.41424567E+00 -2.33807964E+01  0.00000000E+00
 -1.22642642E+00 -2.34613093E+01  0.00000000E+00  8.44684995E-01 -2.55564187E+01
  0.00000000E+00 -2.54867946E+00 -2.55567142E+01  0.00000000E+00 -4.61620567E+00
 -2.73911066E+01  0.00000000E+00 -1.60545404E+00
Number of symbols in /Mol/                 I                0
Force Field                                I                0
Atom Types                                 C   N=          26






Int Atom Types                             I   N=          26
           0           0           0           0           0           0
           0           0           0           0           0           0
           0           0           0           0           0           0
           0           0           0           0           0           0
           0           0
MM charges                                 R   N=          26
  0.00000000E+00  0.00000000E+00  0.00000000E+00  0.00000000E+00  0.00000000E+00
  0.00000000E+00  0.00000000E+00  0.00000000E+00  0.00000000E+00  0.00000000E+00
  0.00000000E+00  0.00000000E+00  0.00000000E+00  0.00000000E+00  0.00000000E+00
  0.00000000E+00  0.00000000E+00  0.00000000E+00  0.00000000E+00  0.00000000E+00
  0.00000000E+00  0.00000000E+00  0.00000000E+00  0.00000000E+00  0.00000000E+00
  0.00000000E+00
Integer atomic weights                     I   N=          26
          12           1           1          12           1          12
           1          12           1          12           1          12
           1          12           1          12           1          12
           1          12           1          12           1          12
           1           1
Real atomic weights                        R   N=          26
  1.20000000E+01  1.00782504E+00  1.00782504E+00  1.20000000E+01  1.00782504E+00
  1.20000000E+01  1.00782504E+00  1.20000000E+01  1.00782504E+00  1.20000000E+01
  1.00782504E+00  1.20000000E+01  1.00782504E+00  1.20000000E+01  1.00782504E+00
  1.20000000E+01  1.00782504E+00  1.20000000E+01  1.00782504E+00  1.20000000E+01
  1.00782504E+00  1.20000000E+01  1.00782504E+00  1.20000000E+01  1.00782504E+00
  1.00782504E+00
Atom fragment info                         I   N=          26
           0           0           0           0           0           0
           0           0           0           0           0           0
           0           0           0           0           0           0
           0           0           0           0           0           0
           0           0
Atom residue num                           I   N=          26
           0           0           0           0           0           0
           0           0           0           0           0           0
           0           0           0           0           0           0
           0           0           0           0           0           0
           0           0
Nuclear spins                              I   N=          26
           0           1           1           0           1           0
           1           0           1           0           1           0
           1           0           1           0           1           0
           1           0           1           0           1           0
           1           1
Nuclear ZEff                               R   N=          26
 -3.60000000E+00 -1.00000000E+00 -1.00000000E+00 -3.60000000E+00 -1.00000000E+00
 -3.60000000E+00 -1.00000000E+00 -3.60000000E+00 -1.00000000E+00 -3.60000000E+00
 -1.00000000E+00 -3.60000000E+00 -1.00000000E+00 -3.60000000E+00 -1.00000000E+00
 -3.60000000E+00 -1.00000000E+00 -3.60000000E+00 -1.00000000E+00 -3.60000000E+00
 -1.00000000E+00 -3.60000000E+00 -1.00000000E+00 -3.60000000E+00 -1.00000000E+00
 -1.00000000E+00
Nuclear ZNuc                               R   N=          26
  6.00000000E+00  1.00000000E+00  1.00000000E+00  6.00000000E+00  1.00000000E+00
  6.00000000E+00  1.00000000E+00  6.00000000E+00  1.00000000E+00  6.00000000E+00
  1.00000000E+00  6.00000000E+00  1.00000000E+00  6.00000000E+00  1.00000000E+00
  6.00000000E+00  1.00000000E+00  6.00000000E+00  1.00000000E+00  6.00000000E+00
  1.00000000E+00  6.00000000E+00  1.00000000E+00  6.00000000E+00  1.00000000E+00
  1.00000000E+00
Nuclear QMom                               R   N=          26
  0.00000000E+00  0.00000000E+00  0.00000000E+00  0.00000000E+00  0.00000000E+00
  0.00000000E+00  0.00000000E+00  0.00000000E+00  0.00000000E+00  0.00000000E+00
  0.00000000E+00  0.00000000E+00  0.00000000E+00  0.00000000E+00  0.00000000E+00
  0.00000000E+00  0.00000000E+00  0.00000000E+00  0.00000000E+00  0.00000000E+00
  0.00000000E+00  0.00000000E+00  0.00000000E+00  0.00000000E+00  0.00000000E+00
  0.00000000E+00
Nuclear GFac                               R   N=          26
  0.00000000E+00  2.79284600E+00  2.79284600E+00  0.00000000E+00  2.79284600E+00
  0.00000000E+00  2.79284600E+00  0.00000000E+00  2.79284600E+00  0.00000000E+00
  2.79284600E+00  0.00000000E+00  2.79284600E+00  0.00000000E+00  2.79284600E+00
  0.00000000E+00  2.79284600E+00  0.00000000E+00  2.79284600E+00  0.00000000E+00
  2.79284600E+00  0.00000000E+00  2.79284600E+00  0.00000000E+00  2.79284600E+00
  2.79284600E+00
MicOpt                                     I   N=          26
          -1          -1          -1          -1          -1          -1
          -1          -1          -1          -1          -1          -1
          -1          -1          -1          -1          -1          -1
          -1          -1          -1          -1          -1          -1
          -1          -1
Number of residues                         I                0
Number of secondary structures             I                0
Number of contracted shells                I              114
Number of primitive shells                 I              334
Pure/Cartesian d shells                    I                1
Pure/Cartesian f shells                    I                1
Highest angular momentum                   I                2
Largest degree of contraction              I                8
Shell types                                I   N=         114
           0           0           0           1           1           2
           0           0           1           0           0           1
           0           0           0           1           1           2
           0           0           1           0           0           0
           1           1           2           0           0           1
           0           0           0           1           1           2
           0           0           1           0           0           0
           1           1           2           0           0           1
           0           0           0           1           1           2
           0           0           1           0           0           0
           1           1           2           0           0           1
           0           0           0           1           1           2
           0           0           1           0           0           0
           1           1           2           0           0           1
           0           0           0           1           1           2
           0           0           1           0           0           0
           1           1           2           0           0           1
           0           0           0           1           1           2
           0           0           1           0           0           1
Number of primitives per shell             I   N=         114
           8           8           1           3           1           1
           3           1           1           3           1           1
           8           8           1           3           1           1
           3           1           1           8           8           1
           3           1           1           3           1           1
           8           8           1           3           1           1
           3           1           1           8           8           1
           3           1           1           3           1           1
           8           8           1           3           1           1
           3           1           1           8           8           1
           3           1           1           3           1           1
           8           8           1           3           1           1
           3           1           1           8           8           1
           3           1           1           3           1           1
           8           8           1           3           1           1
           3           1           1           8           8           1
           3           1           1           3           1           1
           8           8           1           3           1           1
           3           1           1           3           1           1
Shell to atom map                          I   N=         114
           1           1           1           1           1           1
           2           2           2           3           3           3
           4           4           4           4           4           4
           5           5           5           6           6           6
           6           6           6           7           7           7
           8           8           8           8           8           8
           9           9           9          10          10          10
          10          10          10          11          11          11
          12          12          12          12          12          12
          13          13          13          14          14          14
          14          14          14          15          15          15
          16          16          16          16          16          16
          17          17          17          18          18          18
          18          18          18          19          19          19
          20          20          20          20          20          20
          21          21          21          22          22          22
          22          22          22          23          23          23
          24          24          24          24          24          24
          25          25          25          26          26          26
Primitive exponents                        R   N=         334
  6.66500000E+03  1.00000000E+03  2.28000000E+02  6.47100000E+01  2.10600000E+01
  7.49500000E+00  2.79700000E+00  5.21500000E-01  6.66500000E+03  1.00000000E+03
  2.28000000E+02  6.47100000E+01  2.10600000E+01  7.49500000E+00  2.79700000E+00
  5.21500000E-01  1.59600000E-01  9.43900000E+00  2.00200000E+00  5.45600000E-01
  1.51700000E-01  5.50000000E-01  1.30100000E+01  1.96200000E+00  4.44600000E-01
  1.22000000E-01  7.27000000E-01  1.30100000E+01  1.96200000E+00  4.44600000E-01
  1.22000000E-01  7.27000000E-01  6.66500000E+03  1.00000000E+03  2.28000000E+02
  6.47100000E+01  2.10600000E+01  7.49500000E+00  2.79700000E+00  5.21500000E-01
  6.66500000E+03  1.00000000E+03  2.28000000E+02  6.47100000E+01  2.10600000E+01
  7.49500000E+00  2.79700000E+00  5.21500000E-01  1.59600000E-01  9.43900000E+00
  2.00200000E+00  5.45600000E-01  1.51700000E-01  5.50000000E-01  1.30100000E+01
  1.96200000E+00  4.44600000E-01  1.22000000E-01  7.27000000E-01  6.66500000E+03
  1.00000000E+03  2.28000000E+02  6.47100000E+01  2.10600000E+01  7.49500000E+00
  2.79700000E+00  5.21500000E-01  6.66500000E+03  1.00000000E+03  2.28000000E+02
  6.47100000E+01  2.10600000E+01  7.49500000E+00  2.79700000E+00  5.21500000E-01
  1.59600000E-01  9.43900000E+00  2.00200000E+00  5.45600000E-01  1.51700000E-01
  5.50000000E-01  1.30100000E+01  1.96200000E+00  4.44600000E-01  1.22000000E-01
  7.27000000E-01  6.66500000E+03  1.00000000E+03  2.28000000E+02  6.47100000E+01
  2.10600000E+01  7.49500000E+00  2.79700000E+00  5.21500000E-01  6.66500000E+03
  1.00000000E+03  2.28000000E+02  6.47100000E+01  2.10600000E+01  7.49500000E+00
  2.79700000E+00  5.21500000E-01  1.59600000E-01  9.43900000E+00  2.00200000E+00
  5.45600000E-01  1.51700000E-01  5.50000000E-01  1.30100000E+01  1.96200000E+00
  4.44600000E-01  1.22000000E-01  7.27000000E-01  6.66500000E+03  1.00000000E+03
  2.28000000E+02  6.47100000E+01  2.10600000E+01  7.49500000E+00  2.79700000E+00
  5.21500000E-01  6.66500000E+03  1.00000000E+03  2.28000000E+02  6.47100000E+01
  2.10600000E+01  7.49500000E+00  2.79700000E+00  5.21500000E-01  1.59600000E-01
  9.43900000E+00  2.00200000E+00  5.45600000E-01  1.51700000E-01  5.50000000E-01
  1.30100000E+01  1.96200000E+00  4.44600000E-01  1.22000000E-01  7.27000000E-01
  6.66500000E+03  1.00000000E+03  2.28000000E+02  6.47100000E+01  2.10600000E+01
  7.49500000E+00  2.79700000E+00  5.21500000E-01  6.66500000E+03  1.00000000E+03
  2.28000000E+02  6.47100000E+01  2.10600000E+01  7.49500000E+00  2.79700000E+00
  5.21500000E-01  1.59600000E-01  9.43900000E+00  2.00200000E+00  5.45600000E-01
  1.51700000E-01  5.50000000E-01  1.30100000E+01  1.96200000E+00  4.44600000E-01
  1.22000000E-01  7.27000000E-01  6.66500000E+03  1.00000000E+03  2.28000000E+02
  6.47100000E+01  2.10600000E+01  7.49500000E+00  2.79700000E+00  5.21500000E-01
  6.66500000E+03  1.00000000E+03  2.28000000E+02  6.47100000E+01  2.10600000E+01
  7.49500000E+00  2.79700000E+00  5.21500000E-01  1.59600000E-01  9.43900000E+00
  2.00200000E+00  5.45600000E-01  1.51700000E-01  5.50000000E-01  1.30100000E+01
  1.96200000E+00  4.44600000E-01  1.22000000E-01  7.27000000E-01  6.66500000E+03
  1.00000000E+03  2.28000000E+02  6.47100000E+01  2.10600000E+01  7.49500000E+00
  2.79700000E+00  5.21500000E-01  6.66500000E+03  1.00000000E+03  2.28000000E+02
  6.47100000E+01  2.10600000E+01  7.49500000E+00  2.79700000E+00  5.21500000E-01
  1.59600000E-01  9.43900000E+00  2.00200000E+00  5.45600000E-01  1.51700000E-01
  5.50000000E-01  1.30100000E+01  1.96200000E+00  4.44600000E-01  1.22000000E-01
  7.27000000E-01  6.66500000E+03  1.00000000E+03  2.28000000E+02  6.47100000E+01
  2.10600000E+01  7.49500000E+00  2.79700000E+00  5.21500000E-01  6.66500000E+03
  1.00000000E+03  2.28000000E+02  6.47100000E+01  2.10600000E+01  7.49500000E+00
  2.79700000E+00  5.21500000E-01  1.59600000E-01  9.43900000E+00  2.00200000E+00
  5.45600000E-01  1.51700000E-01  5.50000000E-01  1.30100000E+01  1.96200000E+00
  4.44600000E-01  1.22000000E-01  7.27000000E-01  6.66500000E+03  1.00000000E+03
  2.28000000E+02  6.47100000E+01  2.10600000E+01  7.49500000E+00  2.79700000E+00
  5.21500000E-01  6.66500000E+03  1.00000000E+03  2.28000000E+02  6.47100000E+01
  2.10600000E+01  7.49500000E+00  2.79700000E+00  5.21500000E-01  1.59600000E-01
  9.43900000E+00  2.00200000E+00  5.45600000E-01  1.51700000E-01  5.50000000E-01
  1.30100000E+01  1.96200000E+00  4.44600000E-01  1.22000000E-01  7.27000000E-01
  6.66500000E+03  1.00000000E+03  2.28000000E+02  6.47100000E+01  2.10600000E+01
  7.49500000E+00  2.79700000E+00  5.21500000E-01  6.66500000E+03  1.00000000E+03
  2.28000000E+02  6.47100000E+01  2.10600000E+01  7.49500000E+00  2.79700000E+00
  5.21500000E-01  1.59600000E-01  9.43900000E+00  2.00200000E+00  5.45600000E-01
  1.51700000E-01  5.50000000E-01  1.30100000E+01  1.96200000E+00  4.44600000E-01
  1.22000000E-01  7.27000000E-01  6.66500000E+03  1.00000000E+03  2.28000000E+02
  6.47100000E+01  2.10600000E+01  7.49500000E+00  2.79700000E+00  5.21500000E-01
  6.66500000E+03  1.00000000E+03  2.28000000E+02  6.47100000E+01  2.10600000E+01
  7.49500000E+00  2.79700000E+00  5.21500000E-01  1.59600000E-01  9.43900000E+00
  2.00200000E+00  5.45600000E-01  1.51700000E-01  5.50000000E-01  1.30100000E+01
  1.96200000E+00  4.44600000E-01  1.22000000E-01  7.27000000E-01  1.30100000E+01
  1.96200000E+00  4.44600000E-01  1.22000000E-01  7.27000000E-01
Contraction coefficients                   R   N=         334
  6.91583963E-04  5.32579615E-03  2.70607210E-02  1.01656846E-01  2.74574824E-01
  4.48294319E-01  2.84902611E-01  1.51948592E-02 -2.93269653E-04 -2.31803547E-03
 -1.14997860E-02 -4.68267270E-02 -1.28466169E-01 -3.01266272E-01 -2.55630702E-01
  1.09379336E+00  1.00000000E+00  5.69792516E-02  3.13207212E-01  7.60376742E-01
  1.00000000E+00  1.00000000E+00  3.34987264E-02  2.34800801E-01  8.13682958E-01
  1.00000000E+00  1.00000000E+00  3.34987264E-02  2.34800801E-01  8.13682958E-01
  1.00000000E+00  1.00000000E+00  6.91583963E-04  5.32579615E-03  2.70607210E-02
  1.01656846E-01  2.74574824E-01  4.48294319E-01  2.84902611E-01  1.51948592E-02
 -2.93269653E-04 -2.31803547E-03 -1.14997860E-02 -4.68267270E-02 -1.28466169E-01
 -3.01266272E-01 -2.55630702E-01  1.09379336E+00  1.00000000E+00  5.69792516E-02
  3.13207212E-01  7.60376742E-01  1.00000000E+00  1.00000000E+00  3.34987264E-02
  2.34800801E-01  8.13682958E-01  1.00000000E+00  1.00000000E+00  6.91583963E-04
  5.32579615E-03  2.70607210E-02  1.01656846E-01  2.74574824E-01  4.48294319E-01
  2.84902611E-01  1.51948592E-02 -2.93269653E-04 -2.31803547E-03 -1.14997860E-02
 -4.68267270E-02 -1.28466169E-01 -3.01266272E-01 -2.55630702E-01  1.09379336E+00
  1.00000000E+00  5.69792516E-02  3.13207212E-01  7.60376742E-01  1.00000000E+00
  1.00000000E+00  3.34987264E-02  2.34800801E-01  8.13682958E-01  1.00000000E+00
  1.00000000E+00  6.91583963E-04  5.32579615E-03  2.70607210E-02  1.01656846E-01
  2.74574824E-01  4.48294319E-01  2.84902611E-01  1.51948592E-02 -2.93269653E-04
 -2.31803547E-03 -1.14997860E-02 -4.68267270E-02 -1.28466169E-01 -3.01266272E-01
 -2.55630702E-01  1.09379336E+00  1.00000000E+00  5.69792516E-02  3.13207212E-01
  7.60376742E-01  1.00000000E+00  1.00000000E+00  3.34987264E-02  2.34800801E-01
  8.13682958E-01  1.00000000E+00  1.00000000E+00  6.91583963E-04  5.32579615E-03
  2.70607210E-02  1.01656846E-01  2.74574824E-01  4.48294319E-01  2.84902611E-01
  1.51948592E-02 -2.93269653E-04 -2.31803547E-03 -1.14997860E-02 -4.68267270E-02
 -1.28466169E-01 -3.01266272E-01 -2.55630702E-01  1.09379336E+00  1.00000000E+00
  5.69792516E-02  3.13207212E-01  7.60376742E-01  1.00000000E+00  1.00000000E+00
  3.34987264E-02  2.34800801E-01  8.13682958E-01  1.00000000E+00  1.00000000E+00
  6.91583963E-04  5.32579615E-03  2.70607210E-02  1.01656846E-01  2.74574824E-01
  4.48294319E-01  2.84902611E-01  1.51948592E-02 -2.93269653E-04 -2.31803547E-03
 -1.14997860E-02 -4.68267270E-02 -1.28466169E-01 -3.01266272E-01 -2.55630702E-01
  1.09379336E+00  1.00000000E+00  5.69792516E-02  3.13207212E-01  7.60376742E-01
  1.00000000E+00  1.00000000E+00  3.34987264E-02  2.34800801E-01  8.13682958E-01
  1.00000000E+00  1.00000000E+00  6.91583963E-04  5.32579615E-03  2.70607210E-02
  1.01656846E-01  2.74574824E-01  4.48294319E-01  2.84902611E-01  1.51948592E-02
 -2.93269653E-04 -2.31803547E-03 -1.14997860E-02 -4.68267270E-02 -1.28466169E-01
 -3.01266272E-01 -2.55630702E-01  1.09379336E+00  1.00000000E+00  5.69792516E-02
  3.13207212E-01  7.60376742E-01  1.00000000E+00  1.00000000E+00  3.34987264E-02
  2.34800801E-01  8.13682958E-01  1.00000000E+00  1.00000000E+00  6.91583963E-04
  5.32579615E-03  2.70607210E-02  1.01656846E-01  2.74574824E-01  4.48294319E-01
  2.84902611E-01  1.51948592E-02 -2.93269653E-04 -2.31803547E-03 -1.14997860E-02
 -4.68267270E-02 -1.28466169E-01 -3.01266272E-01 -2.55630702E-01  1.09379336E+00
  1.00000000E+00  5.69792516E-02  3.13207212E-01  7.60376742E-01  1.00000000E+00
  1.00000000E+00  3.34987264E-02  2.34800801E-01  8.13682958E-01  1.00000000E+00
  1.00000000E+00  6.91583963E-04  5.32579615E-03  2.70607210E-02  1.01656846E-01
  2.74574824E-01  4.48294319E-01  2.84902611E-01  1.51948592E-02 -2.93269653E-04
 -2.31803547E-03 -1.14997860E-02 -4.68267270E-02 -1.28466169E-01 -3.01266272E-01
 -2.55630702E-01  1.09379336E+00  1.00000000E+00  5.69792516E-02  3.13207212E-01
  7.60376742E-01  1.00000000E+00  1.00000000E+00  3.34987264E-02  2.34800801E-01
  8.13682958E-01  1.00000000E+00  1.00000000E+00  6.91583963E-04  5.32579615E-03
  2.70607210E-02  1.01656846E-01  2.74574824E-01  4.48294319E-01  2.84902611E-01
  1.51948592E-02 -2.93269653E-04 -2.31803547E-03 -1.14997860E-02 -4.68267270E-02
 -1.28466169E-01 -3.01266272E-01 -2.55630702E-01  1.09379336E+00  1.00000000E+00
  5.69792516E-02  3.13207212E-01  7.60376742E-01  1.00000000E+00  1.00000000E+00
  3.34987264E-02  2.34800801E-01  8.13682958E-01  1.00000000E+00  1.00000000E+00
  6.91583963E-04  5.32579615E-03  2.70607210E-02  1.01656846E-01  2.74574824E-01
  4.48294319E-01  2.84902611E-01  1.51948592E-02 -2.93269653E-04 -2.31803547E-03
 -1.14997860E-02 -4.68267270E-02 -1.28466169E-01 -3.01266272E-01 -2.55630702E-01
  1.09379336E+00  1.00000000E+00  5.69792516E-02  3.13207212E-01  7.60376742E-01
  1.00000000E+00  1.00000000E+00  3.34987264E-02  2.34800801E-01  8.13682958E-01
  1.00000000E+00  1.00000000E+00  6.91583963E-04  5.32579615E-03  2.70607210E-02
  1.01656846E-01  2.74574824E-01  4.48294319E-01  2.84902611E-01  1.51948592E-02
 -2.93269653E-04 -2.31803547E-03 -1.14997860E-02 -4.68267270E-02 -1.28466169E-01
 -3.01266272E-01 -2.55630702E-01  1.09379336E+00  1.00000000E+00  5.69792516E-02
  3.13207212E-01  7.60376742E-01  1.00000000E+00  1.00000000E+00  3.34987264E-02
  2.34800801E-01  8.13682958E-01  1.00000000E+00  1.00000000E+00  3.34987264E-02
  2.34800801E-01  8.13682958E-01  1.00000000E+00  1.00000000E+00
Coordinates of each shell                  R   N=         342
  0.00000000E+00  0.00000000E+00  0.00000000E+00  0.00000000E+00  0.00000000E+00
  0.00000000E+00  0.00000000E+00  0.00000000E+00  0.00000000E+00  0.00000000E+00
  0.00000000E+00  0.00000000E+00  0.00000000E+00  0.00000000E+00  0.00000000E+00
  0.00000000E+00  0.00000000E+00  0.00000000E+00  0.00000000E+00  0.00000000E+00
  2.06752745E+00  0.00000000E+00  0.00000000E+00  2.06752745E+00  0.00000000E+00
  0.00000000E+00  2.06752745E+00  1.83481866E+00  0.00000000E+00 -9.42968669E-01
  1.83481866E+00  0.00000000E+00 -9.42968669E-01  1.83481866E+00  0.00000000E+00
 -9.42968669E-01 -2.17545396E+00  0.00000000E+00 -1.32253545E+00 -2.17545396E+00
  0.00000000E+00 -1.32253545E+00 -2.17545396E+00  0.00000000E+00 -1.32253545E+00
 -2.17545396E+00  0.00000000E+00 -1.32253545E+00 -2.17545396E+00  0.00000000E+00
 -1.32253545E+00 -2.17545396E+00  0.00000000E+00 -1.32253545E+00 -2.09468803E+00
  0.00000000E+00 -3.39363577E+00 -2.09468803E+00  0.00000000E+00 -3.39363577E+00
 -2.09468803E+00  0.00000000E+00 -3.39363577E+00 -4.67223077E+00  0.00000000E+00
 -2.05458678E-01 -4.67223077E+00  0.00000000E+00 -2.05458678E-01 -4.67223077E+00
  0.00000000E+00 -2.05458678E-01 -4.67223077E+00  0.00000000E+00 -2.05458678E-01
 -4.67223077E+00  0.00000000E+00 -2.05458678E-01 -4.67223077E+00  0.00000000E+00
 -2.05458678E-01 -4.77482096E+00  0.00000000E+00  1.86500250E+00 -4.77482096E+00
  0.00000000E+00  1.86500250E+00 -4.77482096E+00  0.00000000E+00  1.86500250E+00
 -6.85967752E+00  0.00000000E+00 -1.55553770E+00 -6.85967752E+00  0.00000000E+00
 -1.55553770E+00 -6.85967752E+00  0.00000000E+00 -1.55553770E+00 -6.85967752E+00
  0.00000000E+00 -1.55553770E+00 -6.85967752E+00  0.00000000E+00 -1.55553770E+00
 -6.85967752E+00  0.00000000E+00 -1.55553770E+00 -6.74686628E+00  0.00000000E+00
 -3.62593908E+00 -6.74686628E+00  0.00000000E+00 -3.62593908E+00 -6.74686628E+00
  0.00000000E+00 -3.62593908E+00 -9.34654550E+00  0.00000000E+00 -4.60358506E-01
 -9.34654550E+00  0.00000000E+00 -4.60358506E-01 -9.34654550E+00  0.00000000E+00
 -4.60358506E-01 -9.34654550E+00  0.00000000E+00 -4.60358506E-01 -9.34654550E+00
  0.00000000E+00 -4.60358506E-01 -9.34654550E+00  0.00000000E+00 -4.60358506E-01
 -9.46406814E+00  0.00000000E+00  1.60929135E+00 -9.46406814E+00  0.00000000E+00
  1.60929135E+00 -9.46406814E+00  0.00000000E+00  1.60929135E+00 -1.15357459E+01
  0.00000000E+00 -1.82012912E+00 -1.15357459E+01  0.00000000E+00 -1.82012912E+00
 -1.15357459E+01  0.00000000E+00 -1.82012912E+00 -1.15357459E+01  0.00000000E+00
 -1.82012912E+00 -1.15357459E+01  0.00000000E+00 -1.82012912E+00 -1.15357459E+01
  0.00000000E+00 -1.82012912E+00 -1.14165628E+01  0.00000000E+00 -3.88985836E+00
 -1.14165628E+01  0.00000000E+00 -3.88985836E+00 -1.14165628E+01  0.00000000E+00
 -3.88985836E+00 -1.40205345E+01  0.00000000E+00 -7.29493810E-01 -1.40205345E+01
  0.00000000E+00 -7.29493810E-01 -1.40205345E+01  0.00000000E+00 -7.29493810E-01
 -1.40205345E+01  0.00000000E+00 -7.29493810E-01 -1.40205345E+01  0.00000000E+00
 -7.29493810E-01 -1.40205345E+01  0.00000000E+00 -7.29493810E-01 -1.41396953E+01
  0.00000000E+00  1.34024069E+00 -1.41396953E+01  0.00000000E+00  1.34024069E+00
 -1.41396953E+01  0.00000000E+00  1.34024069E+00 -1.62097732E+01  0.00000000E+00
 -2.08920068E+00 -1.62097732E+01  0.00000000E+00 -2.08920068E+00 -1.62097732E+01
  0.00000000E+00 -2.08920068E+00 -1.62097732E+01  0.00000000E+00 -2.08920068E+00
 -1.62097732E+01  0.00000000E+00 -2.08920068E+00 -1.62097732E+01  0.00000000E+00
 -2.08920068E+00 -1.60923451E+01  0.00000000E+00 -4.15885300E+00 -1.60923451E+01
  0.00000000E+00 -4.15885300E+00 -1.60923451E+01  0.00000000E+00 -4.15885300E+00
 -1.86965804E+01  0.00000000E+00 -9.93881103E-01 -1.86965804E+01  0.00000000E+00
 -9.93881103E-01 -1.86965804E+01  0.00000000E+00 -9.93881103E-01 -1.86965804E+01
  0.00000000E+00 -9.93881103E-01 -1.86965804E+01  0.00000000E+00 -9.93881103E-01
 -1.86965804E+01  0.00000000E+00 -9.93881103E-01 -1.88092504E+01  0.00000000E+00
  1.07653154E+00 -1.88092504E+01  0.00000000E+00  1.07653154E+00 -1.88092504E+01
  0.00000000E+00  1.07653154E+00 -2.08841399E+01  0.00000000E+00 -2.34377442E+00
 -2.08841399E+01  0.00000000E+00 -2.34377442E+00 -2.08841399E+01  0.00000000E+00
 -2.34377442E+00 -2.08841399E+01  0.00000000E+00 -2.34377442E+00 -2.08841399E+01
  0.00000000E+00 -2.34377442E+00 -2.08841399E+01  0.00000000E+00 -2.34377442E+00
 -2.07817592E+01  0.00000000E+00 -4.41424567E+00 -2.07817592E+01  0.00000000E+00
 -4.41424567E+00 -2.07817592E+01  0.00000000E+00 -4.41424567E+00 -2.33807964E+01
  0.00000000E+00 -1.22642642E+00 -2.33807964E+01  0.00000000E+00 -1.22642642E+00
 -2.33807964E+01  0.00000000E+00 -1.22642642E+00 -2.33807964E+01  0.00000000E+00
 -1.22642642E+00 -2.33807964E+01  0.00000000E+00 -1.22642642E+00 -2.33807964E+01
  0.00000000E+00 -1.22642642E+00 -2.34613093E+01  0.00000000E+00  8.44684995E-01
 -2.34613093E+01  0.00000000E+00  8.44684995E-01 -2.34613093E+01  0.00000000E+00
  8.44684995E-01 -2.55564187E+01  0.00000000E+00 -2.54867946E+00 -2.55564187E+01
  0.00000000E+00 -2.54867946E+00 -2.55564187E+01  0.00000000E+00 -2.54867946E+00
 -2.55564187E+01  0.00000000E+00 -2.54867946E+00 -2.55564187E+01  0.00000000E+00
 -2.54867946E+00 -2.55564187E+01  0.00000000E+00 -2.54867946E+00 -2.55567142E+01
  0.00000000E+00 -4.61620567E+00 -2.55567142E+01  0.00000000E+00 -4.61620567E+00
 -2.55567142E+01  0.00000000E+00 -4.61620567E+00 -2.73911066E+01  0.00000000E+00