Title section
Stability RHF                                                         6-31G
Number of atoms                            I               26
Info1-9                                    I   N=           9
          37          36           0           0           0         110
           7           1           2
Full Title                                 C   N=           2
Title section
Route                                      C   N=          11
#p int=(nobasistransform) nosymm pop=full punch=gamessinput
gfprint uhf/6-31g 6D 10F guess=mix SCF=(xqc, maxcycle=500) s
table=opt
Charge                                     I                0
Multiplicity                               I                1
Number of electrons                        I               86
Number of alpha electrons                  I               43
Number of beta electrons                   I               43
Number of basis functions                  I              136
Number of independent functions            I              136
Number of point charges in /Mol/           I                0
Number of translation vectors              I                0
Atomic numbers                             I   N=          26
           6           1           1           6           1           6
           1           6           1           6           1           6
           1           6           1           6           1           6
           1           6           1           6           1           6
           1           1
Nuclear charges                            R   N=          26
  6.00000000E+00  1.00000000E+00  1.00000000E+00  6.00000000E+00  1.00000000E+00
  6.00000000E+00  1.00000000E+00  6.00000000E+00  1.00000000E+00  6.00000000E+00
  1.00000000E+00  6.00000000E+00  1.00000000E+00  6.00000000E+00  1.00000000E+00
  6.00000000E+00  1.00000000E+00  6.00000000E+00  1.00000000E+00  6.00000000E+00
  1.00000000E+00  6.00000000E+00  1.00000000E+00  6.00000000E+00  1.00000000E+00
  1.00000000E+00
Current cartesian coordinates              R   N=          78
  0.00000000E+00  0.00000000E+00  0.00000000E+00  0.00000000E+00  0.00000000E+00
  2.06752745E+00  1.83481866E+00  0.00000000E+00 -9.42968669E-01 -4.35090790E+00
  0.00000000E+00 -2.64507092E+00 -4.27014197E+00  0.00000000E+00 -4.71617123E+00
 -6.84768472E+00  0.00000000E+00 -1.52799413E+00 -6.95027491E+00  0.00000000E+00
  5.42467030E-01 -1.12225782E+01  0.00000000E+00 -4.22815218E+00 -1.11097670E+01
  0.00000000E+00 -6.29855357E+00 -1.37094462E+01  0.00000000E+00 -3.13297299E+00
 -1.38269688E+01  0.00000000E+00 -1.06332313E+00 -1.80878470E+01  0.00000000E+00
 -5.85251424E+00 -1.79686639E+01  0.00000000E+00 -7.92224346E+00 -2.05726356E+01
  0.00000000E+00 -4.76187891E+00 -2.06917964E+01  0.00000000E+00 -2.69214441E+00
 -2.49511130E+01  0.00000000E+00 -7.48129265E+00 -2.48336849E+01  0.00000000E+00
 -9.55094499E+00 -2.74379202E+01  0.00000000E+00 -6.38597307E+00 -2.75505902E+01
  0.00000000E+00 -4.31556045E+00 -3.18130391E+01  0.00000000E+00 -9.08575972E+00
 -3.17106584E+01  0.00000000E+00 -1.11562310E+01 -3.43096956E+01  0.00000000E+00
 -7.96841172E+00 -3.43902085E+01  0.00000000E+00 -5.89730031E+00 -3.86609402E+01
  0.00000000E+00 -1.06129178E+01 -3.86612357E+01  0.00000000E+00 -1.26804440E+01
 -4.04956281E+01  0.00000000E+00 -9.66969239E+00
Number of symbols in /Mol/                 I                0
Force Field                                I                0
Atom Types                                 C   N=          26






Int Atom Types                             I   N=          26
           0           0           0           0           0           0
           0           0           0           0           0           0
           0           0           0           0           0           0
           0           0           0           0           0           0
           0           0
MM charges                                 R   N=          26
  0.00000000E+00  0.00000000E+00  0.00000000E+00  0.00000000E+00  0.00000000E+00
  0.00000000E+00  0.00000000E+00  0.00000000E+00  0.00000000E+00  0.00000000E+00
  0.00000000E+00  0.00000000E+00  0.00000000E+00  0.00000000E+00  0.00000000E+00
  0.00000000E+00  0.00000000E+00  0.00000000E+00  0.00000000E+00  0.00000000E+00
  0.00000000E+00  0.00000000E+00  0.00000000E+00  0.00000000E+00  0.00000000E+00
  0.00000000E+00
Integer atomic weights                     I   N=          26
          12           1           1          12           1          12
           1          12           1          12           1          12
           1          12           1          12           1          12
           1          12           1          12           1          12
           1           1
Real atomic weights                        R   N=          26
  1.20000000E+01  1.00782504E+00  1.00782504E+00  1.20000000E+01  1.00782504E+00
  1.20000000E+01  1.00782504E+00  1.20000000E+01  1.00782504E+00  1.20000000E+01
  1.00782504E+00  1.20000000E+01  1.00782504E+00  1.20000000E+01  1.00782504E+00
  1.20000000E+01  1.00782504E+00  1.20000000E+01  1.00782504E+00  1.20000000E+01
  1.00782504E+00  1.20000000E+01  1.00782504E+00  1.20000000E+01  1.00782504E+00
  1.00782504E+00
Atom fragment info                         I   N=          26
           0           0           0           0           0           0
           0           0           0           0           0           0
           0           0           0           0           0           0
           0           0           0           0           0           0
           0           0
Atom residue num                           I   N=          26
           0           0           0           0           0           0
           0           0           0           0           0           0
           0           0           0           0           0           0
           0           0           0           0           0           0
           0           0
Nuclear spins                              I   N=          26
           0           1           1           0           1           0
           1           0           1           0           1           0
           1           0           1           0           1           0
           1           0           1           0           1           0
           1           1
Nuclear ZEff                               R   N=          26
 -3.60000000E+00 -1.00000000E+00 -1.00000000E+00 -3.60000000E+00 -1.00000000E+00
 -3.60000000E+00 -1.00000000E+00 -3.60000000E+00 -1.00000000E+00 -3.60000000E+00
 -1.00000000E+00 -3.60000000E+00 -1.00000000E+00 -3.60000000E+00 -1.00000000E+00
 -3.60000000E+00 -1.00000000E+00 -3.60000000E+00 -1.00000000E+00 -3.60000000E+00
 -1.00000000E+00 -3.60000000E+00 -1.00000000E+00 -3.60000000E+00 -1.00000000E+00
 -1.00000000E+00
Nuclear ZNuc                               R   N=          26
  6.00000000E+00  1.00000000E+00  1.00000000E+00  6.00000000E+00  1.00000000E+00
  6.00000000E+00  1.00000000E+00  6.00000000E+00  1.00000000E+00  6.00000000E+00
  1.00000000E+00  6.00000000E+00  1.00000000E+00  6.00000000E+00  1.00000000E+00
  6.00000000E+00  1.00000000E+00  6.00000000E+00  1.00000000E+00  6.00000000E+00
  1.00000000E+00  6.00000000E+00  1.00000000E+00  6.00000000E+00  1.00000000E+00
  1.00000000E+00
Nuclear QMom                               R   N=          26
  0.00000000E+00  0.00000000E+00  0.00000000E+00  0.00000000E+00  0.00000000E+00
  0.00000000E+00  0.00000000E+00  0.00000000E+00  0.00000000E+00  0.00000000E+00
  0.00000000E+00  0.00000000E+00  0.00000000E+00  0.00000000E+00  0.00000000E+00
  0.00000000E+00  0.00000000E+00  0.00000000E+00  0.00000000E+00  0.00000000E+00
  0.00000000E+00  0.00000000E+00  0.00000000E+00  0.00000000E+00  0.00000000E+00
  0.00000000E+00
Nuclear GFac                               R   N=          26
  0.00000000E+00  2.79284600E+00  2.79284600E+00  0.00000000E+00  2.79284600E+00
  0.00000000E+00  2.79284600E+00  0.00000000E+00  2.79284600E+00  0.00000000E+00
  2.79284600E+00  0.00000000E+00  2.79284600E+00  0.00000000E+00  2.79284600E+00
  0.00000000E+00  2.79284600E+00  0.00000000E+00  2.79284600E+00  0.00000000E+00
  2.79284600E+00  0.00000000E+00  2.79284600E+00  0.00000000E+00  2.79284600E+00
  2.79284600E+00
MicOpt                                     I   N=          26
          -1          -1          -1          -1          -1          -1
          -1          -1          -1          -1          -1          -1
          -1          -1          -1          -1          -1          -1
          -1          -1          -1          -1          -1          -1
          -1          -1
Number of residues                         I                0
Number of secondary structures             I                0
Number of contracted shells                I               64
Number of primitive shells                 I              176
Pure/Cartesian d shells                    I                1
Pure/Cartesian f shells                    I                1
Highest angular momentum                   I                1
Largest degree of contraction              I                6
Shell types                                I   N=          64
           0          -1          -1           0           0           0
           0           0          -1          -1           0           0
           0          -1          -1           0           0           0
          -1          -1           0           0           0          -1
          -1           0           0           0          -1          -1
           0           0           0          -1          -1           0
           0           0          -1          -1           0           0
           0          -1          -1           0           0           0
          -1          -1           0           0           0          -1
          -1           0           0           0          -1          -1
           0           0           0           0
Number of primitives per shell             I   N=          64
           6           3           1           3           1           3
           1           6           3           1           3           1
           6           3           1           3           1           6
           3           1           3           1           6           3
           1           3           1           6           3           1
           3           1           6           3           1           3
           1           6           3           1           3           1
           6           3           1           3           1           6
           3           1           3           1           6           3
           1           3           1           6           3           1
           3           1           3           1
Shell to atom map                          I   N=          64
           1           1           1           2           2           3
           3           4           4           4           5           5
           6           6           6           7           7           8
           8           8           9           9          10          10
          10          11          11          12          12          12
          13          13          14          14          14          15
          15          16          16          16          17          17
          18          18          18          19          19          20
          20          20          21          21          22          22
          22          23          23          24          24          24
          25          25          26          26
Primitive exponents                        R   N=         176
  3.04752488E+03  4.57369518E+02  1.03948685E+02  2.92101553E+01  9.28666296E+00
  3.16392696E+00  7.86827235E+00  1.88128854E+00  5.44249258E-01  1.68714478E-01
  1.87311370E+01  2.82539436E+00  6.40121692E-01  1.61277759E-01  1.87311370E+01
  2.82539436E+00  6.40121692E-01  1.61277759E-01  3.04752488E+03  4.57369518E+02
  1.03948685E+02  2.92101553E+01  9.28666296E+00  3.16392696E+00  7.86827235E+00
  1.88128854E+00  5.44249258E-01  1.68714478E-01  1.87311370E+01  2.82539436E+00
  6.40121692E-01  1.61277759E-01  3.04752488E+03  4.57369518E+02  1.03948685E+02
  2.92101553E+01  9.28666296E+00  3.16392696E+00  7.86827235E+00  1.88128854E+00
  5.44249258E-01  1.68714478E-01  1.87311370E+01  2.82539436E+00  6.40121692E-01
  1.61277759E-01  3.04752488E+03  4.57369518E+02  1.03948685E+02  2.92101553E+01
  9.28666296E+00  3.16392696E+00  7.86827235E+00  1.88128854E+00  5.44249258E-01
  1.68714478E-01  1.87311370E+01  2.82539436E+00  6.40121692E-01  1.61277759E-01
  3.04752488E+03  4.57369518E+02  1.03948685E+02  2.92101553E+01  9.28666296E+00
  3.16392696E+00  7.86827235E+00  1.88128854E+00  5.44249258E-01  1.68714478E-01
  1.87311370E+01  2.82539436E+00  6.40121692E-01  1.61277759E-01  3.04752488E+03
  4.57369518E+02  1.03948685E+02  2.92101553E+01  9.28666296E+00  3.16392696E+00
  7.86827235E+00  1.88128854E+00  5.44249258E-01  1.68714478E-01  1.87311370E+01
  2.82539436E+00  6.40121692E-01  1.61277759E-01  3.04752488E+03  4.57369518E+02
  1.03948685E+02  2.92101553E+01  9.28666296E+00  3.16392696E+00  7.86827235E+00
  1.88128854E+00  5.44249258E-01  1.68714478E-01  1.87311370E+01  2.82539436E+00
  6.40121692E-01  1.61277759E-01  3.04752488E+03  4.57369518E+02  1.03948685E+02
  2.92101553E+01  9.28666296E+00  3.16392696E+00  7.86827235E+00  1.88128854E+00
  5.44249258E-01  1.68714478E-01  1.87311370E+01  2.82539436E+00  6.40121692E-01
  1.61277759E-01  3.04752488E+03  4.57369518E+02  1.03948685E+02  2.92101553E+01
  9.28666296E+00  3.16392696E+00  7.86827235E+00  1.88128854E+00  5.44249258E-01
  1.68714478E-01  1.87311370E+01  2.82539436E+00  6.40121692E-01  1.61277759E-01
  3.04752488E+03  4.57369518E+02  1.03948685E+02  2.92101553E+01  9.28666296E+00
  3.16392696E+00  7.86827235E+00  1.88128854E+00  5.44249258E-01  1.68714478E-01
  1.87311370E+01  2.82539436E+00  6.40121692E-01  1.61277759E-01  3.04752488E+03
  4.57369518E+02  1.03948685E+02  2.92101553E+01  9.28666296E+00  3.16392696E+00
  7.86827235E+00  1.88128854E+00  5.44249258E-01  1.68714478E-01  1.87311370E+01
  2.82539436E+00  6.40121692E-01  1.61277759E-01  3.04752488E+03  4.57369518E+02
  1.03948685E+02  2.92101553E+01  9.28666296E+00  3.16392696E+00  7.86827235E+00
  1.88128854E+00  5.44249258E-01  1.68714478E-01  1.87311370E+01  2.82539436E+00
  6.40121692E-01  1.61277759E-01  1.87311370E+01  2.82539436E+00  6.40121692E-01
  1.61277759E-01
Contraction coefficients                   R   N=         176
  1.83473713E-03  1.40373228E-02  6.88426223E-02  2.32184443E-01  4.67941348E-01
  3.62311985E-01 -1.19332420E-01 -1.60854152E-01  1.14345644E+00  1.00000000E+00
  3.34946043E-02  2.34726953E-01  8.13757326E-01  1.00000000E+00  3.34946043E-02
  2.34726953E-01  8.13757326E-01  1.00000000E+00  1.83473713E-03  1.40373228E-02
  6.88426223E-02  2.32184443E-01  4.67941348E-01  3.62311985E-01 -1.19332420E-01
 -1.60854152E-01  1.14345644E+00  1.00000000E+00  3.34946043E-02  2.34726953E-01
  8.13757326E-01  1.00000000E+00  1.83473713E-03  1.40373228E-02  6.88426223E-02
  2.32184443E-01  4.67941348E-01  3.62311985E-01 -1.19332420E-01 -1.60854152E-01
  1.14345644E+00  1.00000000E+00  3.34946043E-02  2.34726953E-01  8.13757326E-01
  1.00000000E+00  1.83473713E-03  1.40373228E-02  6.88426223E-02  2.32184443E-01
  4.67941348E-01  3.62311985E-01 -1.19332420E-01 -1.60854152E-01  1.14345644E+00
  1.00000000E+00  3.34946043E-02  2.34726953E-01  8.13757326E-01  1.00000000E+00
  1.83473713E-03  1.40373228E-02  6.88426223E-02  2.32184443E-01  4.67941348E-01
  3.62311985E-01 -1.19332420E-01 -1.60854152E-01  1.14345644E+00  1.00000000E+00
  3.34946043E-02  2.34726953E-01  8.13757326E-01  1.00000000E+00  1.83473713E-03
  1.40373228E-02  6.88426223E-02  2.32184443E-01  4.67941348E-01  3.62311985E-01
 -1.19332420E-01 -1.60854152E-01  1.14345644E+00  1.00000000E+00  3.34946043E-02
  2.34726953E-01  8.13757326E-01  1.00000000E+00  1.83473713E-03  1.40373228E-02
  6.88426223E-02  2.32184443E-01  4.67941348E-01  3.62311985E-01 -1.19332420E-01
 -1.60854152E-01  1.14345644E+00  1.00000000E+00  3.34946043E-02  2.34726953E-01
  8.13757326E-01  1.00000000E+00  1.83473713E-03  1.40373228E-02  6.88426223E-02
  2.32184443E-01  4.67941348E-01  3.62311985E-01 -1.19332420E-01 -1.60854152E-01
  1.14345644E+00  1.00000000E+00  3.34946043E-02  2.34726953E-01  8.13757326E-01
  1.00000000E+00  1.83473713E-03  1.40373228E-02  6.88426223E-02  2.32184443E-01
  4.67941348E-01  3.62311985E-01 -1.19332420E-01 -1.60854152E-01  1.14345644E+00
  1.00000000E+00  3.34946043E-02  2.34726953E-01  8.13757326E-01  1.00000000E+00
  1.83473713E-03  1.40373228E-02  6.88426223E-02  2.32184443E-01  4.67941348E-01
  3.62311985E-01 -1.19332420E-01 -1.60854152E-01  1.14345644E+00  1.00000000E+00
  3.34946043E-02  2.34726953E-01  8.13757326E-01  1.00000000E+00  1.83473713E-03
  1.40373228E-02  6.88426223E-02  2.32184443E-01  4.67941348E-01  3.62311985E-01
 -1.19332420E-01 -1.60854152E-01  1.14345644E+00  1.00000000E+00  3.34946043E-02
  2.34726953E-01  8.13757326E-01  1.00000000E+00  1.83473713E-03  1.40373228E-02
  6.88426223E-02  2.32184443E-01  4.67941348E-01  3.62311985E-01 -1.19332420E-01
 -1.60854152E-01  1.14345644E+00  1.00000000E+00  3.34946043E-02  2.34726953E-01
  8.13757326E-01  1.00000000E+00  3.34946043E-02  2.34726953E-01  8.13757326E-01
  1.00000000E+00
P(S=P) Contraction coefficients            R   N=         176
  0.00000000E+00  0.00000000E+00  0.00000000E+00  0.00000000E+00  0.00000000E+00
  0.00000000E+00  6.89990666E-02  3.16423961E-01  7.44308291E-01  1.00000000E+00
  0.00000000E+00  0.00000000E+00  0.00000000E+00  0.00000000E+00  0.00000000E+00
  0.00000000E+00  0.00000000E+00  0.00000000E+00  0.00000000E+00  0.00000000E+00
  0.00000000E+00  0.00000000E+00  0.00000000E+00  0.00000000E+00  6.89990666E-02
  3.16423961E-01  7.44308291E-01  1.00000000E+00  0.00000000E+00  0.00000000E+00
  0.00000000E+00  0.00000000E+00  0.00000000E+00  0.00000000E+00  0.00000000E+00
  0.00000000E+00  0.00000000E+00  0.00000000E+00  6.89990666E-02  3.16423961E-01
  7.44308291E-01  1.00000000E+00  0.00000000E+00  0.00000000E+00  0.00000000E+00
  0.00000000E+00  0.00000000E+00  0.00000000E+00  0.00000000E+00  0.00000000E+00
  0.00000000E+00  0.00000000E+00  6.89990666E-02  3.16423961E-01  7.44308291E-01
  1.00000000E+00  0.00000000E+00  0.00000000E+00  0.00000000E+00  0.00000000E+00
  0.00000000E+00  0.00000000E+00  0.00000000E+00  0.00000000E+00  0.00000000E+00
  0.00000000E+00  6.89990666E-02  3.16423961E-01  7.44308291E-01  1.00000000E+00
  0.00000000E+00  0.00000000E+00  0.00000000E+00  0.00000000E+00  0.00000000E+00
  0.00000000E+00  0.00000000E+00  0.00000000E+00  0.00000000E+00  0.00000000E+00
  6.89990666E-02  3.16423961E-01  7.44308291E-01  1.00000000E+00  0.00000000E+00
  0.00000000E+00  0.00000000E+00  0.00000000E+00  0.00000000E+00  0.00000000E+00
  0.00000000E+00  0.00000000E+00  0.00000000E+00  0.00000000E+00  6.89990666E-02
  3.16423961E-01  7.44308291E-01  1.00000000E+00  0.00000000E+00  0.00000000E+00
  0.00000000E+00  0.00000000E+00  0.00000000E+00  0.00000000E+00  0.00000000E+00
  0.00000000E+00  0.00000000E+00  0.00000000E+00  6.89990666E-02  3.16423961E-01
  7.44308291E-01  1.00000000E+00  0.00000000E+00  0.00000000E+00  0.00000000E+00
  0.00000000E+00  0.00000000E+00  0.00000000E+00  0.00000000E+00  0.00000000E+00
  0.00000000E+00  0.00000000E+00  6.89990666E-02  3.16423961E-01  7.44308291E-01
  1.00000000E+00  0.00000000E+00  0.00000000E+00  0.00000000E+00  0.00000000E+00
  0.00000000E+00  0.00000000E+00  0.00000000E+00  0.00000000E+00  0.00000000E+00
  0.00000000E+00  6.89990666E-02  3.16423961E-01  7.44308291E-01  1.00000000E+00
  0.00000000E+00  0.00000000E+00  0.00000000E+00  0.00000000E+00  0.00000000E+00
  0.00000000E+00  0.00000000E+00  0.00000000E+00  0.00000000E+00  0.00000000E+00
  6.89990666E-02  3.16423961E-01  7.44308291E-01  1.00000000E+00  0.00000000E+00
  0.00000000E+00  0.00000000E+00  0.00000000E+00  0.00000000E+00  0.00000000E+00
  0.00000000E+00  0.00000000E+00  0.00000000E+00  0.00000000E+00  6.89990666E-02
  3.16423961E-01  7.44308291E-01  1.00000000E+00  0.00000000E+00  0.00000000E+00
  0.00000000E+00  0.00000000E+00  0.00000000E+00  0.00000000E+00  0.00000000E+00
  0.00000000E+00
Coordinates of each shell                  R   N=         192
  0.00000000E+00  0.00000000E+00  0.00000000E+00  0.00000000E+00  0.00000000E+00
  0.00000000E+00  0.00000000E+00  0.00000000E+00  0.00000000E+00  0.00000000E+00
  0.00000000E+00  2.06752745E+00  0.00000000E+00  0.00000000E+00  2.06752745E+00
  1.83481866E+00  0.00000000E+00 -9.42968669E-01  1.83481866E+00  0.00000000E+00
 -9.42968669E-01 -4.35090790E+00  0.00000000E+00 -2.64507092E+00 -4.35090790E+00
  0.00000000E+00 -2.64507092E+00 -4.35090790E+00  0.00000000E+00 -2.64507092E+00
 -4.27014197E+00  0.00000000E+00 -4.71617123E+00 -4.27014197E+00  0.00000000E+00
 -4.71617123E+00 -6.84768472E+00  0.00000000E+00 -1.52799413E+00 -6.84768472E+00
  0.00000000E+00 -1.52799413E+00 -6.84768472E+00  0.00000000E+00 -1.52799413E+00
 -6.95027491E+00  0.00000000E+00  5.42467030E-01 -6.95027491E+00  0.00000000E+00
  5.42467030E-01 -1.12225782E+01  0.00000000E+00 -4.22815218E+00 -1.12225782E+01
  0.00000000E+00 -4.22815218E+00 -1.12225782E+01  0.00000000E+00 -4.22815218E+00
 -1.11097670E+01  0.00000000E+00 -6.29855357E+00 -1.11097670E+01  0.00000000E+00
 -6.29855357E+00 -1.37094462E+01  0.00000000E+00 -3.13297299E+00 -1.37094462E+01
  0.00000000E+00 -3.13297299E+00 -1.37094462E+01  0.00000000E+00 -3.13297299E+00
 -1.38269688E+01  0.00000000E+00 -1.06332313E+00 -1.38269688E+01  0.00000000E+00
 -1.06332313E+00 -1.80878470E+01  0.00000000E+00 -5.85251424E+00 -1.80878470E+01
  0.00000000E+00 -5.85251424E+00 -1.80878470E+01  0.00000000E+00 -5.85251424E+00
 -1.79686639E+01  0.00000000E+00 -7.92224346E+00 -1.79686639E+01  0.00000000E+00
 -7.92224346E+00 -2.05726356E+01  0.00000000E+00 -4.76187891E+00 -2.05726356E+01
  0.00000000E+00 -4.76187891E+00 -2.05726356E+01  0.00000000E+00 -4.76187891E+00
 -2.06917964E+01  0.00000000E+00 -2.69214441E+00 -2.06917964E+01  0.00000000E+00
 -2.69214441E+00 -2.49511130E+01  0.00000000E+00 -7.48129265E+00 -2.49511130E+01
  0.00000000E+00 -7.48129265E+00 -2.49511130E+01  0.00000000E+00 -7.48129265E+00
 -2.48336849E+01  0.00000000E+00 -9.55094499E+00 -2.48336849E+01  0.00000000E+00
 -9.55094499E+00 -2.74379202E+01  0.00000000E+00 -6.38597307E+00 -2.74379202E+01
  0.00000000E+00 -6.38597307E+00 -2.74379202E+01  0.00000000E+00 -6.38597307E+00
 -2.75505902E+01  0.00000000E+00 -4.31556045E+00 -2.75505902E+01  0.00000000E+00
 -4.31556045E+00 -3.18130391E+01  0.00000000E+00 -9.08575972E+00 -3.18130391E+01
  0.00000000E+00 -9.08575972E+00 -3.18130391E+01  0.00000000E+00 -9.08575972E+00
 -3.17106584E+01  0.00000000E+00 -1.11562310E+01 -3.17106584E+01  0.00000000E+00
 -1.11562310E+01 -3.43096956E+01  0.00000000E+00 -7.96841172E+00 -3.43096956E+01
  0.00000000E+00 -7.96841172E+00 -3.43096956E+01  0.00000000E+00 -7.96841172E+00
 -3.43902085E+01  0.00000000E+00 -5.89730031E+00 -3.43902085E+01  0.00000000E+00
 -5.89730031E+00 -3.86609402E+01  0.00000000E+00 -1.06129178E+01 -3.86609402E+01
  0.00000000E+00 -1.06129178E+01 -3.86609402E+01  0.00000000E+00 -1.06129178E+01
 -3.86612357E+01  0.00000000E+00 -1.26804440E+01 -3.86612357E+01  0.00000000E+00
 -1.26804440E+01 -4.04956281E+01  0.00000000E+00 -9.66969239E+00 -4.04956281E+01
  0.00000000E+00 -9.66969239E+00
Num ILSW                                   I              100
ILSW                                       I   N=         100
           0           1           0           0           2           1
           0           0           0           0           0          -1
           5           0           0           1           0           0
           0           0           0           0           0           0
           1           1           0           0           0           0
           0           0      100000           0          -1           0
           0           0           0           0           0           0
           0           0           0           1           0           0
           0 -2000000000           1           0           0           0
           0           0           4          52           0           0
           0           0           0           0           0           0
           0           0           0          26           0           1
           0           0           0           0           0           0
           0           0           0           0           0           0
           0           0           0           0           0           0
           0           0           0           0           0           0
           0           0           0           0
Num RLSW                                   I               52
RLSW                                       R   N=          52
  1.00000000E+00  1.00000000E+00  1.00000000E+00  1.00000000E+00  1.00000000E+00
  0.00000000E+00  0.00000000E+00  1.00000000E+00  0.00000000E+00  0.00000000E+00
  0.00000000E+00  0.00000000E+00  1.00000000E+00  0.00000000E+00  0.00000000E+00
  0.00000000E+00  0.00000000E+00  1.00000000E+00  0.00000000E+00  0.00000000E+00
  0.00000000E+00  0.00000000E+00  1.00000000E+00  0.00000000E+00  0.00000000E+00
  0.00000000E+00  0.00000000E+00  1.00000000E+00  0.00000000E+00  0.00000000E+00
  0.00000000E+00  0.00000000E+00  1.00000000E+00  0.00000000E+00  0.00000000E+00
  0.00000000E+00  0.00000000E+00  0.00000000E+00  1.00000000E+00  1.00000000E+00
  0.00000000E+00  1.00000000E+00  0.00000000E+00  0.00000000E+00  0.00000000E+00
  0.00000000E+00  0.00000000E+00  0.00000000E+00  0.00000000E+00  0.00000000E+00
  0.00000000E+00  0.00000000E+00
MxBond                                     I                2
NBond                                      I   N=          26
           2           1           1           2           1           2
           1           2           1           2           1           2
           1           2           1           2           1           2
           1           2           1           2           1           2
           1           1
IBond                                      I   N=          52
           2           3           1           0           1           0
           5           6           4           0           4           7
           6           0           9          10           8           0
           8          11          10           0          13          14
          12           0          12          15          14           0
          17          18          16           0          16          19
          18           0          21          22          20           0
          20          23          22           0          25          26
          24           0          24           0
RBond                                      R   N=          52
  1.00000000E+00  1.00000000E+00  1.00000000E+00  0.00000000E+00  1.00000000E+00
  0.00000000E+00  1.00000000E+00  1.00000000E+00  1.00000000E+00  0.00000000E+00
  1.00000000E+00  1.00000000E+00  1.00000000E+00  0.00000000E+00  1.00000000E+00
  1.00000000E+00  1.00000000E+00  0.00000000E+00  1.00000000E+00  1.00000000E+00
  1.00000000E+00  0.00000000E+00  1.00000000E+00  1.00000000E+00  1.00000000E+00
  0.00000000E+00  1.00000000E+00  1.00000000E+00  1.00000000E+00  0.00000000E+00
  1.00000000E+00  1.00000000E+00  1.00000000E+00  0.00000000E+00  1.00000000E+00
  1.00000000E+00  1.00000000E+00  0.00000000E+00  1.00000000E+00  1.00000000E+00
  1.00000000E+00  0.00000000E+00  1.00000000E+00  1.00000000E+00  1.00000000E+00
  0.00000000E+00  1.00000000E+00  1.00000000E+00  1.00000000E+00  0.00000000E+00
  1.00000000E+00  0.00000000E+00
Virial Ratio                               R      2.001696072742599E+00
SCF Energy                                 R     -4.613878279437089E+02
Total Energy                               R     -4.613878279437089E+02
S**2                                       R      8.297232753528846E+00
S**2 after annihilation                    R      2.740992083339259E+01
RMS Density                                R      3.755109887502438E-10
Job Status                                 I                1
Nuclear derivative order                   I                0
External E-field                           R   N=          35
  0.00000000E+00  0.00000000E+00  0.00000000E+00  0.00000000E+00  0.00000000E+00
  0.00000000E+00  0.00000000E+00  0.00000000E+00  0.00000000E+00  0.00000000E+00
  0.00000000E+00  0.00000000E+00  0.00000000E+00  0.00000000E+00  0.00000000E+00
  0.00000000E+00  0.00000000E+00  0.00000000E+00  0.00000000E+00  0.00000000E+00
  0.00000000E+00  0.00000000E+00  0.00000000E+00  0.00000000E+00  0.00000000E+00
  0.00000000E+00  0.00000000E+00  0.00000000E+00  0.00000000E+00  0.00000000E+00
  0.00000000E+00  0.00000000E+00  0.00000000E+00  0.00000000E+00  0.00000000E+00
IOpCl                                      I                0
IROHF                                      I                0
Alpha Orbital Energies                     R   N=         136
 -1.12825452E+01 -1.12815996E+01 -1.12749807E+01 -1.12746168E+01 -1.12670529E+01
 -1.12627096E+01 -1.12621588E+01 -1.12385235E+01 -1.12372369E+01 -1.12371843E+01
 -1.12266995E+01 -1.12262737E+01 -1.00105404E+00 -9.97031036E-01 -9.92045216E-01
 -9.83182218E-01 -9.81134262E-01 -8.68918698E-01 -8.68542611E-01 -7.31701208E-01
 -7.29999793E-01 -7.29360607E-01 -7.23285222E-01 -7.22775983E-01 -5.79791242E-01
 -5.79304700E-01 -5.45316561E-01 -5.42436701E-01 -5.41160457E-01 -5.36193329E-01
 -5.31460780E-01 -5.27454373E-01 -5.02001290E-01 -4.81379554E-01 -4.60245621E-01