 Entering Gaussian System, Link 0=g16
 Input=C12H14_opt.gjf
 Output=C12H14_opt.log
 Initial command:
 /opt/g16/l1.exe "/scratch/qingchun/gaussian/Gau-258964.inp" -scrdir="/scratch/qingchun/gaussian/"
 Entering Link 1 = /opt/g16/l1.exe PID=    258965.
  
 Copyright (c) 1988,1990,1992,1993,1995,1998,2003,2009,2016,
            Gaussian, Inc.  All Rights Reserved.
  
 This is part of the Gaussian(R) 16 program.  It is based on
 the Gaussian(R) 09 system (copyright 2009, Gaussian, Inc.),
 the Gaussian(R) 03 system (copyright 2003, Gaussian, Inc.),
 the Gaussian(R) 98 system (copyright 1998, Gaussian, Inc.),
 the Gaussian(R) 94 system (copyright 1995, Gaussian, Inc.),
 the Gaussian 92(TM) system (copyright 1992, Gaussian, Inc.),
 the Gaussian 90(TM) system (copyright 1990, Gaussian, Inc.),
 the Gaussian 88(TM) system (copyright 1988, Gaussian, Inc.),
 the Gaussian 86(TM) system (copyright 1986, Carnegie Mellon
 University), and the Gaussian 82(TM) system (copyright 1983,
 Carnegie Mellon University). Gaussian is a federally registered
 trademark of Gaussian, Inc.
  
 This software contains proprietary and confidential information,
 including trade secrets, belonging to Gaussian, Inc.
  
 This software is provided under written license and may be
 used, copied, transmitted, or stored only in accord with that
 written license.
  
 The following legend is applicable only to US Government
 contracts under FAR:
  
                    RESTRICTED RIGHTS LEGEND
  
 Use, reproduction and disclosure by the US Government is
 subject to restrictions as set forth in subparagraphs (a)
 and (c) of the Commercial Computer Software - Restricted
 Rights clause in FAR 52.227-19.
  
 Gaussian, Inc.
 340 Quinnipiac St., Bldg. 40, Wallingford CT 06492
  
  
 ---------------------------------------------------------------
 Warning -- This program may not be used in any manner that
 competes with the business of Gaussian, Inc. or will provide
 assistance to any competitor of Gaussian, Inc.  The licensee
 of this program is prohibited from giving any competitor of
 Gaussian, Inc. access to this program.  By using this program,
 the user acknowledges that Gaussian, Inc. is engaged in the
 business of creating and licensing software in the field of
 computational chemistry and represents and warrants to the
 licensee that it is not a competitor of Gaussian, Inc. and that
 it will not use this program in any manner prohibited above.
 ---------------------------------------------------------------
  

 Cite this work as:
 Gaussian 16, Revision A.03,
 M. J. Frisch, G. W. Trucks, H. B. Schlegel, G. E. Scuseria, 
 M. A. Robb, J. R. Cheeseman, G. Scalmani, V. Barone, 
 G. A. Petersson, H. Nakatsuji, X. Li, M. Caricato, A. V. Marenich, 
 J. Bloino, B. G. Janesko, R. Gomperts, B. Mennucci, H. P. Hratchian, 
 J. V. Ortiz, A. F. Izmaylov, J. L. Sonnenberg, D. Williams-Young, 
 F. Ding, F. Lipparini, F. Egidi, J. Goings, B. Peng, A. Petrone, 
 T. Henderson, D. Ranasinghe, V. G. Zakrzewski, J. Gao, N. Rega, 
 G. Zheng, W. Liang, M. Hada, M. Ehara, K. Toyota, R. Fukuda, 
 J. Hasegawa, M. Ishida, T. Nakajima, Y. Honda, O. Kitao, H. Nakai, 
 T. Vreven, K. Throssell, J. A. Montgomery, Jr., J. E. Peralta, 
 F. Ogliaro, M. J. Bearpark, J. J. Heyd, E. N. Brothers, K. N. Kudin, 
 V. N. Staroverov, T. A. Keith, R. Kobayashi, J. Normand, 
 K. Raghavachari, A. P. Rendell, J. C. Burant, S. S. Iyengar, 
 J. Tomasi, M. Cossi, J. M. Millam, M. Klene, C. Adamo, R. Cammi, 
 J. W. Ochterski, R. L. Martin, K. Morokuma, O. Farkas, 
 J. B. Foresman, and D. J. Fox, Gaussian, Inc., Wallingford CT, 2016.
 
 ******************************************
 Gaussian 16:  ES64L-G16RevA.03 25-Dec-2016
                 5-Mar-2020 
 ******************************************
 %nprocshared=24
 Will use up to   24 processors via shared memory.
 %mem=180GB
 %chk=C12H14_opt.chk
 -------------------------------------------
 #p opt freq b3lyp/cc-pVDZ geom=connectivity
 -------------------------------------------
 1/18=20,19=15,26=3,38=1,57=2/1,3;
 2/9=110,12=2,17=6,18=5,40=1/2;
 3/5=16,11=2,25=1,30=1,71=1,74=-5/1,2,3;
 4//1;
 5/5=2,38=5/2;
 6/7=2,8=2,9=2,10=2,28=1/1;
 7//1,2,3,16;
 1/18=20,19=15,26=3/3(2);
 2/9=110/2;
 99//99;
 2/9=110/2;
 3/5=16,11=2,25=1,30=1,71=1,74=-5/1,2,3;
 4/5=5,16=3,69=1/1;
 5/5=2,38=5/2;
 7//1,2,3,16;
 1/18=20,19=15,26=3/3(-5);
 2/9=110/2;
 6/7=2,8=2,9=2,10=2,19=2,28=1/1;
 99/9=1/99;
 Leave Link    1 at Thu Mar  5 11:33:01 2020, MaxMem= 24159191040 cpu:               1.0 elap:               0.0
 (Enter /opt/g16/l101.exe)
 -------
 cc-pVDZ
 -------
 Symbolic Z-matrix:
 Charge =  0 Multiplicity = 1
 C                    -3.94884   2.93606  -0.84076 
 H                    -3.41568   2.00836  -0.84076 
 H                    -5.01884   2.93606  -0.84076 
 C                    -3.27356   4.11104  -0.84076 
 H                    -3.80673   5.03875  -0.84076 
 C                    -1.73356   4.11104  -0.84076 
 H                    -1.2004    3.18334  -0.84076 
 C                    -1.05132   5.28199  -0.84076 
 H                    -1.57896   6.21284  -0.84076 
 C                     0.48865   5.27284  -0.84076 
 H                     1.01629   4.34198  -0.84076 
 C                     1.17784   6.43971  -0.84076 
 H                     0.65574   7.37368  -0.84076 
 C                     2.71773   6.42141  -0.84076 
 H                     3.23983   5.48743  -0.84076 
 C                     3.41384   7.58416  -0.84076 
 H                     2.8973    8.52122  -0.84076 
 C                     4.9536    7.55671  -0.84076 
 H                     5.47014   6.61965  -0.84076 
 C                     5.6566    8.71531  -0.84076 
 H                     5.14563   9.65543  -0.84076 
 C                     7.19617   8.67872  -0.84076 
 H                     7.70713   7.7386   -0.84076 
 C                     7.90604   9.83312  -0.84076 
 H                     7.40067   10.77625  -0.84076 
 H                     8.97557   9.80134  -0.84076 
 
 ITRead=  0  0  0  0  0  0  0  0  0  0  0  0  0  0  0  0  0  0  0  0
 ITRead=  0  0  0  0  0  0
 MicOpt= -1 -1 -1 -1 -1 -1 -1 -1 -1 -1 -1 -1 -1 -1 -1 -1 -1 -1 -1 -1
 MicOpt= -1 -1 -1 -1 -1 -1
 NAtoms=     26 NQM=       26 NQMF=       0 NMMI=      0 NMMIF=      0
                NMic=       0 NMicF=      0.
                    Isotopes and Nuclear Properties:
 (Nuclear quadrupole moments (NQMom) in fm**2, nuclear magnetic moments (NMagM)
  in nuclear magnetons)

  Atom         1           2           3           4           5           6           7           8           9          10
 IAtWgt=          12           1           1          12           1          12           1          12           1          12
 AtmWgt=  12.0000000   1.0078250   1.0078250  12.0000000   1.0078250  12.0000000   1.0078250  12.0000000   1.0078250  12.0000000
 NucSpn=           0           1           1           0           1           0           1           0           1           0
 AtZEff=  -0.0000000  -0.0000000  -0.0000000  -0.0000000  -0.0000000  -0.0000000  -0.0000000  -0.0000000  -0.0000000  -0.0000000
 NQMom=    0.0000000   0.0000000   0.0000000   0.0000000   0.0000000   0.0000000   0.0000000   0.0000000   0.0000000   0.0000000
 NMagM=    0.0000000   2.7928460   2.7928460   0.0000000   2.7928460   0.0000000   2.7928460   0.0000000   2.7928460   0.0000000
 AtZNuc=   6.0000000   1.0000000   1.0000000   6.0000000   1.0000000   6.0000000   1.0000000   6.0000000   1.0000000   6.0000000

  Atom        11          12          13          14          15          16          17          18          19          20
 IAtWgt=           1          12           1          12           1          12           1          12           1          12
 AtmWgt=   1.0078250  12.0000000   1.0078250  12.0000000   1.0078250  12.0000000   1.0078250  12.0000000   1.0078250  12.0000000
 NucSpn=           1           0           1           0           1           0           1           0           1           0
 AtZEff=  -0.0000000  -0.0000000  -0.0000000  -0.0000000  -0.0000000  -0.0000000  -0.0000000  -0.0000000  -0.0000000  -0.0000000
 NQMom=    0.0000000   0.0000000   0.0000000   0.0000000   0.0000000   0.0000000   0.0000000   0.0000000   0.0000000   0.0000000
 NMagM=    2.7928460   0.0000000   2.7928460   0.0000000   2.7928460   0.0000000   2.7928460   0.0000000   2.7928460   0.0000000
 AtZNuc=   1.0000000   6.0000000   1.0000000   6.0000000   1.0000000   6.0000000   1.0000000   6.0000000   1.0000000   6.0000000

  Atom        21          22          23          24          25          26
 IAtWgt=           1          12           1          12           1           1
 AtmWgt=   1.0078250  12.0000000   1.0078250  12.0000000   1.0078250   1.0078250
 NucSpn=           1           0           1           0           1           1
 AtZEff=  -0.0000000  -0.0000000  -0.0000000  -0.0000000  -0.0000000  -0.0000000
 NQMom=    0.0000000   0.0000000   0.0000000   0.0000000   0.0000000   0.0000000
 NMagM=    2.7928460   0.0000000   2.7928460   0.0000000   2.7928460   2.7928460
 AtZNuc=   1.0000000   6.0000000   1.0000000   6.0000000   1.0000000   1.0000000
 Leave Link  101 at Thu Mar  5 11:33:02 2020, MaxMem= 24159191040 cpu:               9.0 elap:               0.4
 (Enter /opt/g16/l103.exe)

 GradGradGradGradGradGradGradGradGradGradGradGradGradGradGradGradGradGrad
 Berny optimization.
 Initialization pass.
                           ----------------------------
                           !    Initial Parameters    !
                           ! (Angstroms and Degrees)  !
 --------------------------                            --------------------------
 ! Name  Definition              Value          Derivative Info.                !
 --------------------------------------------------------------------------------
 ! R1    R(1,2)                  1.07           estimate D2E/DX2                !
 ! R2    R(1,3)                  1.07           estimate D2E/DX2                !
 ! R3    R(1,4)                  1.3552         estimate D2E/DX2                !
 ! R4    R(4,5)                  1.07           estimate D2E/DX2                !
 ! R5    R(4,6)                  1.54           estimate D2E/DX2                !
 ! R6    R(6,7)                  1.07           estimate D2E/DX2                !
 ! R7    R(6,8)                  1.3552         estimate D2E/DX2                !
 ! R8    R(8,9)                  1.07           estimate D2E/DX2                !
 ! R9    R(8,10)                 1.54           estimate D2E/DX2                !
 ! R10   R(10,11)                1.07           estimate D2E/DX2                !
 ! R11   R(10,12)                1.3552         estimate D2E/DX2                !
 ! R12   R(12,13)                1.07           estimate D2E/DX2                !
 ! R13   R(12,14)                1.54           estimate D2E/DX2                !
 ! R14   R(14,15)                1.07           estimate D2E/DX2                !
 ! R15   R(14,16)                1.3552         estimate D2E/DX2                !
 ! R16   R(16,17)                1.07           estimate D2E/DX2                !
 ! R17   R(16,18)                1.54           estimate D2E/DX2                !
 ! R18   R(18,19)                1.07           estimate D2E/DX2                !
 ! R19   R(18,20)                1.3552         estimate D2E/DX2                !
 ! R20   R(20,21)                1.07           estimate D2E/DX2                !
 ! R21   R(20,22)                1.54           estimate D2E/DX2                !
 ! R22   R(22,23)                1.07           estimate D2E/DX2                !
 ! R23   R(22,24)                1.3552         estimate D2E/DX2                !
 ! R24   R(24,25)                1.07           estimate D2E/DX2                !
 ! R25   R(24,26)                1.07           estimate D2E/DX2                !
 ! A1    A(2,1,3)              119.8865         estimate D2E/DX2                !
 ! A2    A(2,1,4)              120.2269         estimate D2E/DX2                !
 ! A3    A(3,1,4)              119.8865         estimate D2E/DX2                !
 ! A4    A(1,4,5)              120.2269         estimate D2E/DX2                !
 ! A5    A(1,4,6)              119.8865         estimate D2E/DX2                !
 ! A6    A(5,4,6)              119.8865         estimate D2E/DX2                !
 ! A7    A(4,6,7)              119.8865         estimate D2E/DX2                !
 ! A8    A(4,6,8)              120.2269         estimate D2E/DX2                !
 ! A9    A(7,6,8)              119.8865         estimate D2E/DX2                !
 ! A10   A(6,8,9)              120.2269         estimate D2E/DX2                !
 ! A11   A(6,8,10)             119.8865         estimate D2E/DX2                !
 ! A12   A(9,8,10)             119.8865         estimate D2E/DX2                !
 ! A13   A(8,10,11)            119.8865         estimate D2E/DX2                !
 ! A14   A(8,10,12)            120.2269         estimate D2E/DX2                !
 ! A15   A(11,10,12)           119.8865         estimate D2E/DX2                !
 ! A16   A(10,12,13)           120.2269         estimate D2E/DX2                !
 ! A17   A(10,12,14)           119.8865         estimate D2E/DX2                !
 ! A18   A(13,12,14)           119.8865         estimate D2E/DX2                !
 ! A19   A(12,14,15)           119.8865         estimate D2E/DX2                !
 ! A20   A(12,14,16)           120.2269         estimate D2E/DX2                !
 ! A21   A(15,14,16)           119.8865         estimate D2E/DX2                !
 ! A22   A(14,16,17)           120.2269         estimate D2E/DX2                !
 ! A23   A(14,16,18)           119.8865         estimate D2E/DX2                !
 ! A24   A(17,16,18)           119.8865         estimate D2E/DX2                !
 ! A25   A(16,18,19)           119.8865         estimate D2E/DX2                !
 ! A26   A(16,18,20)           120.2269         estimate D2E/DX2                !
 ! A27   A(19,18,20)           119.8865         estimate D2E/DX2                !
 ! A28   A(18,20,21)           120.2269         estimate D2E/DX2                !
 ! A29   A(18,20,22)           119.8865         estimate D2E/DX2                !
 ! A30   A(21,20,22)           119.8865         estimate D2E/DX2                !
 ! A31   A(20,22,23)           119.8865         estimate D2E/DX2                !
 ! A32   A(20,22,24)           120.2269         estimate D2E/DX2                !
 ! A33   A(23,22,24)           119.8865         estimate D2E/DX2                !
 ! A34   A(22,24,25)           120.2269         estimate D2E/DX2                !
 ! A35   A(22,24,26)           119.8865         estimate D2E/DX2                !
 ! A36   A(25,24,26)           119.8865         estimate D2E/DX2                !
 ! D1    D(2,1,4,5)            180.0            estimate D2E/DX2                !
 ! D2    D(2,1,4,6)              0.0            estimate D2E/DX2                !
 ! D3    D(3,1,4,5)              0.0            estimate D2E/DX2                !
 ! D4    D(3,1,4,6)            180.0            estimate D2E/DX2                !
 ! D5    D(1,4,6,7)              0.0            estimate D2E/DX2                !
 ! D6    D(1,4,6,8)            180.0            estimate D2E/DX2                !
 ! D7    D(5,4,6,7)            180.0            estimate D2E/DX2                !
 ! D8    D(5,4,6,8)              0.0            estimate D2E/DX2                !
 ! D9    D(4,6,8,9)              0.0            estimate D2E/DX2                !
 ! D10   D(4,6,8,10)           180.0            estimate D2E/DX2                !
 ! D11   D(7,6,8,9)            180.0            estimate D2E/DX2                !
 ! D12   D(7,6,8,10)             0.0            estimate D2E/DX2                !
 ! D13   D(6,8,10,11)            0.0            estimate D2E/DX2                !
 ! D14   D(6,8,10,12)          180.0            estimate D2E/DX2                !
 ! D15   D(9,8,10,11)          180.0            estimate D2E/DX2                !
 ! D16   D(9,8,10,12)            0.0            estimate D2E/DX2                !
 ! D17   D(8,10,12,13)           0.0            estimate D2E/DX2                !
 ! D18   D(8,10,12,14)         180.0            estimate D2E/DX2                !
 ! D19   D(11,10,12,13)        180.0            estimate D2E/DX2                !
 ! D20   D(11,10,12,14)          0.0            estimate D2E/DX2                !
 ! D21   D(10,12,14,15)          0.0            estimate D2E/DX2                !
 ! D22   D(10,12,14,16)        180.0            estimate D2E/DX2                !
 ! D23   D(13,12,14,15)        180.0            estimate D2E/DX2                !
 ! D24   D(13,12,14,16)          0.0            estimate D2E/DX2                !
 ! D25   D(12,14,16,17)          0.0            estimate D2E/DX2                !
 ! D26   D(12,14,16,18)        180.0            estimate D2E/DX2                !
 ! D27   D(15,14,16,17)        180.0            estimate D2E/DX2                !
 ! D28   D(15,14,16,18)          0.0            estimate D2E/DX2                !
 ! D29   D(14,16,18,19)          0.0            estimate D2E/DX2                !
 ! D30   D(14,16,18,20)        180.0            estimate D2E/DX2                !
 ! D31   D(17,16,18,19)        180.0            estimate D2E/DX2                !
 ! D32   D(17,16,18,20)          0.0            estimate D2E/DX2                !
 ! D33   D(16,18,20,21)          0.0            estimate D2E/DX2                !
 ! D34   D(16,18,20,22)       -180.0            estimate D2E/DX2                !
 ! D35   D(19,18,20,21)       -180.0            estimate D2E/DX2                !
 ! D36   D(19,18,20,22)          0.0            estimate D2E/DX2                !
 ! D37   D(18,20,22,23)          0.0            estimate D2E/DX2                !
 ! D38   D(18,20,22,24)        180.0            estimate D2E/DX2                !
 ! D39   D(21,20,22,23)        180.0            estimate D2E/DX2                !
 ! D40   D(21,20,22,24)          0.0            estimate D2E/DX2                !
 ! D41   D(20,22,24,25)          0.0            estimate D2E/DX2                !
 ! D42   D(20,22,24,26)        180.0            estimate D2E/DX2                !
 ! D43   D(23,22,24,25)        180.0            estimate D2E/DX2                !
 ! D44   D(23,22,24,26)          0.0            estimate D2E/DX2                !
 --------------------------------------------------------------------------------
 Trust Radius=3.00D-01 FncErr=1.00D-07 GrdErr=1.00D-06 EigMax=2.50D+02 EigMin=1.00D-04
 Number of steps in this run=    115 maximum allowed number of steps=    156.
 GradGradGradGradGradGradGradGradGradGradGradGradGradGradGradGradGradGrad

 Leave Link  103 at Thu Mar  5 11:33:02 2020, MaxMem= 24159191040 cpu:               0.2 elap:               0.0
 (Enter /opt/g16/l202.exe)
                          Input orientation:                          
 ---------------------------------------------------------------------
 Center     Atomic      Atomic             Coordinates (Angstroms)
 Number     Number       Type             X           Y           Z
 ---------------------------------------------------------------------
      1          6           0       -3.948839    2.936064   -0.840762
      2          1           0       -3.415675    2.008359   -0.840762
      3          1           0       -5.018839    2.936064   -0.840762
      4          6           0       -3.273565    4.111042   -0.840762
      5          1           0       -3.806728    5.038746   -0.840762
      6          6           0       -1.733565    4.111042   -0.840762
      7          1           0       -1.200401    3.183337   -0.840762
      8          6           0       -1.051321    5.281986   -0.840762
      9          1           0       -1.578964    6.212842   -0.840762
     10          6           0        0.488652    5.272836   -0.840762
     11          1           0        1.016294    4.341980   -0.840762
     12          6           0        1.177840    6.439707   -0.840762
     13          1           0        0.655738    7.373681   -0.840762
     14          6           0        2.717731    6.421407   -0.840762
     15          1           0        3.239834    5.487433   -0.840762
     16          6           0        3.413840    7.584162   -0.840762
     17          1           0        2.897296    8.521223   -0.840762
     18          6           0        4.953596    7.556714   -0.840762
     19          1           0        5.470140    6.619654   -0.840762
     20          6           0        5.656601    8.715313   -0.840762
     21          1           0        5.145633    9.655426   -0.840762
     22          6           0        7.196166    8.678717   -0.840763
     23          1           0        7.707134    7.738604   -0.840762
     24          6           0        7.906043    9.833119   -0.840763
     25          1           0        7.400670   10.776251   -0.840764
     26          1           0        8.975571    9.801337   -0.840764
 ---------------------------------------------------------------------
                    Distance matrix (angstroms):
                    1          2          3          4          5
     1  C    0.000000
     2  H    1.070000   0.000000
     3  H    1.070000   1.852234   0.000000
     4  C    1.355200   2.107479   2.103938   0.000000
     5  H    2.107479   3.055514   2.427032   1.070000   0.000000
     6  C    2.507591   2.692725   3.489068   1.540000   2.271265
     7  H    2.759539   2.507591   3.826436   2.271265   3.199295
     8  C    3.728131   4.038168   4.609181   2.511867   2.766123
     9  H    4.043956   4.588157   4.750791   2.699859   2.518221
    10  C    5.015160   5.089261   5.982721   3.937517   4.301754
    11  H    5.160343   5.008806   6.196727   4.296070   4.873092
    12  C    6.209537   6.382572   7.118591   5.023712   5.177703
    13  H    6.394886   6.735212   7.203698   5.107273   5.036420
    14  C    7.522684   7.556035   8.485407   6.421325   6.669357
    15  H    7.628007   7.509977   8.643793   6.657238   7.060833
    16  C    8.707116   8.816568   9.628857   7.535513   7.656093
    17  H    8.835359   9.070336   9.688095   7.584802   7.554574
    18  C   10.030142  10.041361  10.990899   8.919576   9.115012
    19  H   10.113654  10.011081  11.116992   9.096456   9.410609
    20  C   11.210004  11.282261  12.139388  10.047247  10.152425
    21  H   11.307486  11.479270  12.184675  10.080828  10.072661
    22  C   12.537512  12.534147  13.497571  11.422737  11.589352
    23  H   12.606589  12.512098  13.602014  11.564383  11.826168
    24  C   13.715231  13.762563  14.649980  12.558893  12.656026
    25  H   13.794197  13.923693  14.687161  12.584287  12.590660
    26  H   14.634627  14.638083  15.587670  13.506323  13.640727
                    6          7          8          9         10
     6  C    0.000000
     7  H    1.070000   0.000000
     8  C    1.355200   2.103938   0.000000
     9  H    2.107479   3.053066   1.070000   0.000000
    10  C    2.507591   2.686802   1.540000   2.271265   0.000000
    11  H    2.759539   2.501238   2.271265   3.199295   1.070000
    12  C    3.728131   4.032366   2.511867   2.766123   1.355200
    13  H    4.043956   4.583038   2.699859   2.518221   2.107479
    14  C    5.015160   5.082997   3.937517   4.301754   2.507591
    15  H    5.160343   5.002454   4.296070   4.873092   2.759539
    16  C    6.209537   6.376401   5.023712   5.177703   3.728131
    17  H    6.394886   6.729350   5.107273   5.036420   4.043956
    18  C    7.522684   7.549709   6.421325   6.669357   5.015160
    19  H    7.628007   7.503625   6.657238   7.060833   5.160343
    20  C    8.707116   8.810292   7.535513   7.656093   6.209537
    21  H    8.835359   9.064220   7.584802   7.554574   6.394886
    22  C   10.030142  10.035016   8.919576   9.115012   7.522684
    23  H   10.113654  10.004731   9.096456   9.410609   7.628007
    24  C   11.210004  11.275944  10.047247  10.152426   8.707116
    25  H   11.307486  11.473045  10.080828  10.072661   8.835359
    26  H   12.127037  12.138711  10.998322  11.147891   9.619517
                   11         12         13         14         15
    11  H    0.000000
    12  C    2.103938   0.000000
    13  H    3.053066   1.070000   0.000000
    14  C    2.686802   1.540000   2.271265   0.000000
    15  H    2.501238   2.271265   3.199295   1.070000   0.000000
    16  C    4.032366   2.511867   2.766123   1.355200   2.103938
    17  H    4.583038   2.699859   2.518221   2.107479   3.053066
    18  C    5.082997   3.937517   4.301754   2.507591   2.686802
    19  H    5.002454   4.296070   4.873092   2.759539   2.501238
    20  C    6.376401   5.023712   5.177703   3.728131   4.032366
    21  H    6.729350   5.107273   5.036420   4.043956   4.583038
    22  C    7.549709   6.421325   6.669357   5.015160   5.082997
    23  H    7.503625   6.657238   7.060833   5.160343   5.002454
    24  C    8.810292   7.535513   7.656093   6.209537   6.376401
    25  H    9.064220   7.584802   7.554574   6.394886   6.729350
    26  H    9.651666   8.491475   8.666783   7.112276   7.176938
                   16         17         18         19         20
    16  C    0.000000
    17  H    1.070000   0.000000
    18  C    1.540000   2.271265   0.000000
    19  H    2.271265   3.199295   1.070000   0.000000
    20  C    2.511867   2.766123   1.355200   2.103938   0.000000
    21  H    2.699859   2.518221   2.107479   3.053066   1.070000
    22  C    3.937517   4.301754   2.507591   2.686802   1.540000
    23  H    4.296070   4.873092   2.759539   2.501238   2.271265
    24  C    5.023712   5.177703   3.728131   4.032366   2.511867
    25  H    5.107273   5.036420   4.043956   4.583038   2.699859
    26  H    5.987379   6.211611   4.605932   4.734041   3.492135
                   21         22         23         24         25
    21  H    0.000000
    22  C    2.271265   0.000000
    23  H    3.199295   1.070000   0.000000
    24  C    2.766123   1.355200   2.103938   0.000000
    25  H    2.518221   2.107479   3.053066   1.070000   0.000000
    26  H    3.832716   2.103938   2.421527   1.070000   1.852234
                   26
    26  H    0.000000
 Stoichiometry    C12H14
 Framework group  C1[X(C12H14)]
 Deg. of freedom    72
 Full point group                 C1      NOp   1
 Largest Abelian subgroup         C1      NOp   1
 Largest concise Abelian subgroup C1      NOp   1
                         Standard orientation:                         
 ---------------------------------------------------------------------
 Center     Atomic      Atomic             Coordinates (Angstroms)
 Number     Number       Type             X           Y           Z
 ---------------------------------------------------------------------
      1          6           0       -6.847716   -0.301918    0.000000
      2          1           0       -6.811327   -1.371299    0.000000
      3          1           0       -7.793017    0.199388    0.000000
      4          6           0       -5.700651    0.419753    0.000000
      5          1           0       -5.737040    1.489134    0.000000
      6          6           0       -4.340125   -0.301752    0.000000
      7          1           0       -4.303736   -1.371133    0.000000
      8          6           0       -3.188793    0.413091    0.000000
      9          1           0       -3.218828    1.482669    0.000000
     10          6           0       -1.832578   -0.316485    0.000000
     11          1           0       -1.802543   -1.386064    0.000000
     12          6           0       -0.677018    0.391504    0.000000
     13          1           0       -0.700698    1.461242    0.000000
     14          6           0        0.674838   -0.346116    0.000000
     15          1           0        0.698517   -1.415854    0.000000
     16          6           0        1.834584    0.354995    0.000000
     17          1           0        1.817260    1.424855    0.000000
     18          6           0        3.182033   -0.390645    0.000000
     19          1           0        3.199357   -1.460504    0.000000
     20          6           0        4.345924    0.303564    0.000000
     21          1           0        4.334958    1.373508    0.000000
     22          6           0        5.688920   -0.450068   -0.000000
     23          1           0        5.699887   -1.520012    0.000000
     24          6           0        6.856915    0.237213   -0.000001
     25          1           0        6.852305    1.307203   -0.000001
     26          1           0        7.786908   -0.291949   -0.000001
 ---------------------------------------------------------------------
 Rotational constants (GHZ):          11.7522721           0.1661685           0.1638517
 Leave Link  202 at Thu Mar  5 11:33:02 2020, MaxMem= 24159191040 cpu:               0.2 elap:               0.0
 (Enter /opt/g16/l301.exe)
 Standard basis: CC-pVDZ (5D, 7F)
 Ernie: Thresh=  0.10000D-02 Tol=  0.10000D-05 Strict=F.
 Ernie:  24 primitive shells out of 334 were deleted.
 There are   250 symmetry adapted cartesian basis functions of A   symmetry.
 There are   238 symmetry adapted basis functions of A   symmetry.
   238 basis functions,   494 primitive gaussians,   250 cartesian basis functions
    43 alpha electrons       43 beta electrons
       nuclear repulsion energy       524.8094540462 Hartrees.
 IExCor=  402 DFT=T Ex+Corr=B3LYP ExCW=0 ScaHFX=  0.200000
 ScaDFX=  0.800000  0.720000  1.000000  0.810000 ScalE2=  1.000000  1.000000
 IRadAn=      5 IRanWt=     -1 IRanGd=            0 ICorTp=0 IEmpDi=  4
 NAtoms=   26 NActive=   26 NUniq=   26 SFac= 1.00D+00 NAtFMM=   60 NAOKFM=F Big=F
 Integral buffers will be    131072 words long.
 Raffenetti 2 integral format.
 Two-electron integral symmetry is turned on.
 Leave Link  301 at Thu Mar  5 11:33:02 2020, MaxMem= 24159191040 cpu:               2.6 elap:               0.1
 (Enter /opt/g16/l302.exe)
 NPDir=0 NMtPBC=     1 NCelOv=     1 NCel=       1 NClECP=     1 NCelD=      1
         NCelK=      1 NCelE2=     1 NClLst=     1 CellRange=     0.0.
 One-electron integrals computed using PRISM.
 One-electron integral symmetry used in STVInt
 NBasis=   238 RedAO= T EigKep=  8.77D-04  NBF=   238
 NBsUse=   238 1.00D-06 EigRej= -1.00D+00 NBFU=   238
 Precomputing XC quadrature grid using
 IXCGrd= 4 IRadAn=           5 IRanWt=          -1 IRanGd=           0 AccXCQ= 0.00D+00.
 Generated NRdTot=       0 NPtTot=           0 NUsed=           0 NTot=          32
 NSgBfM=   243   243   243   243   243 MxSgAt=    26 MxSgA2=    26.
 Leave Link  302 at Thu Mar  5 11:33:02 2020, MaxMem= 24159191040 cpu:               7.3 elap:               0.3
 (Enter /opt/g16/l303.exe)
 DipDrv:  MaxL=1.
 Leave Link  303 at Thu Mar  5 11:33:02 2020, MaxMem= 24159191040 cpu:               1.1 elap:               0.1
 (Enter /opt/g16/l401.exe)
 ExpMin= 1.22D-01 ExpMax= 6.67D+03 ExpMxC= 2.28D+02 IAcc=3 IRadAn=         5 AccDes= 0.00D+00
 Harris functional with IExCor=  402 and IRadAn=       5 diagonalized for initial guess.
 HarFok:  IExCor=  402 AccDes= 0.00D+00 IRadAn=         5 IDoV= 1 UseB2=F ITyADJ=14
 ICtDFT=  3500011 ScaDFX=  1.000000  1.000000  1.000000  1.000000
 FoFCou: FMM=F IPFlag=           0 FMFlag=      100000 FMFlg1=           0
         NFxFlg=           0 DoJE=T BraDBF=F KetDBF=T FulRan=T
         wScrn=  0.000000 ICntrl=       500 IOpCl=  0 I1Cent=   200000004 NGrid=           0
         NMat0=    1 NMatS0=      1 NMatT0=    0 NMatD0=    1 NMtDS0=    0 NMtDT0=    0
 Petite list used in FoFCou.
 Harris En= -465.654954028106    
 JPrj=0 DoOrth=F DoCkMO=F.
 Leave Link  401 at Thu Mar  5 11:33:03 2020, MaxMem= 24159191040 cpu:              16.8 elap:               0.7
 (Enter /opt/g16/l502.exe)
 Integral symmetry usage will be decided dynamically.
 Closed shell SCF:
 Using DIIS extrapolation, IDIIS=  1040.
 NGot= 24159191040 LenX= 24159057262 LenY= 24158994321
 Requested convergence on RMS density matrix=1.00D-08 within 128 cycles.
 Requested convergence on MAX density matrix=1.00D-06.
 Requested convergence on             energy=1.00D-06.
 No special actions if energy rises.
 Fock matrices will be formed incrementally for  20 cycles.
 Integral accuracy reduced to 1.0D-05 until final iterations.

 Cycle   1  Pass 0  IDiag  1:
 FoFJK:  IHMeth= 1 ICntrl=       0 DoSepK=F KAlg= 0 I1Cent=           0 FoldK=F
 IRaf= 740000000 NMat=       1 IRICut=       1 DoRegI=T DoRafI=F ISym2E= 0 IDoP0=0 IntGTp=1.
 FoFCou: FMM=F IPFlag=           0 FMFlag=      100000 FMFlg1=           0
         NFxFlg=           0 DoJE=F BraDBF=F KetDBF=F FulRan=T
         wScrn=  0.000000 ICntrl=         0 IOpCl=  0 I1Cent=           0 NGrid=           0
         NMat0=    1 NMatS0=      1 NMatT0=    0 NMatD0=    1 NMtDS0=    0 NMtDT0=    0
 Symmetry not used in FoFCou.
 E= -465.319950068381    
 DIIS: error= 4.11D-02 at cycle   1 NSaved=   1.
 NSaved= 1 IEnMin= 1 EnMin= -465.319950068381     IErMin= 1 ErrMin= 4.11D-02
 ErrMax= 4.11D-02  0.00D+00 EMaxC= 1.00D-01 BMatC= 2.31D-01 BMatP= 2.31D-01
 IDIUse=3 WtCom= 5.89D-01 WtEn= 4.11D-01
 Coeff-Com:  0.100D+01
 Coeff-En:   0.100D+01
 Coeff:      0.100D+01
 Gap=     0.133 Goal=   None    Shift=    0.000
 GapD=    0.133 DampG=1.000 DampE=0.500 DampFc=0.5000 IDamp=-1.
 Damping current iteration by 5.00D-01
 RMSDP=4.23D-03 MaxDP=1.12D-01              OVMax= 1.49D-01

 Cycle   2  Pass 0  IDiag  1:
 RMSU=  2.04D-03    CP:  9.72D-01
 E= -465.468199397399     Delta-E=       -0.148249329018 Rises=F Damp=T
 DIIS: error= 5.49D-03 at cycle   2 NSaved=   2.
 NSaved= 2 IEnMin= 2 EnMin= -465.468199397399     IErMin= 2 ErrMin= 5.49D-03
 ErrMax= 5.49D-03  0.00D+00 EMaxC= 1.00D-01 BMatC= 7.21D-03 BMatP= 2.31D-01
 IDIUse=3 WtCom= 9.45D-01 WtEn= 5.49D-02
 Coeff-Com: -0.450D-01 0.104D+01
 Coeff-En:   0.000D+00 0.100D+01
 Coeff:     -0.425D-01 0.104D+01
 Gap=     0.136 Goal=   None    Shift=    0.000
 RMSDP=9.37D-04 MaxDP=1.67D-02 DE=-1.48D-01 OVMax= 9.11D-02

 Cycle   3  Pass 0  IDiag  1:
 RMSU=  8.94D-04    CP:  9.60D-01  1.08D+00
 E= -465.607950720216     Delta-E=       -0.139751322818 Rises=F Damp=F
 DIIS: error= 5.16D-03 at cycle   3 NSaved=   3.
 NSaved= 3 IEnMin= 3 EnMin= -465.607950720216     IErMin= 3 ErrMin= 5.16D-03
 ErrMax= 5.16D-03  0.00D+00 EMaxC= 1.00D-01 BMatC= 3.36D-03 BMatP= 7.21D-03
 IDIUse=3 WtCom= 9.48D-01 WtEn= 5.16D-02
 Coeff-Com: -0.373D-01 0.411D+00 0.627D+00
 Coeff-En:   0.000D+00 0.000D+00 0.100D+01
 Coeff:     -0.354D-01 0.390D+00 0.646D+00
 Gap=     0.136 Goal=   None    Shift=    0.000
 RMSDP=4.38D-04 MaxDP=2.13D-02 DE=-1.40D-01 OVMax= 5.37D-02

 Cycle   4  Pass 0  IDiag  1:
 RMSU=  4.08D-04    CP:  9.60D-01  1.08D+00  8.23D-01
 E= -465.608781043417     Delta-E=       -0.000830323201 Rises=F Damp=F
 DIIS: error= 5.17D-03 at cycle   4 NSaved=   4.
 NSaved= 4 IEnMin= 4 EnMin= -465.608781043417     IErMin= 3 ErrMin= 5.16D-03
 ErrMax= 5.17D-03  0.00D+00 EMaxC= 1.00D-01 BMatC= 2.60D-03 BMatP= 3.36D-03
 IDIUse=3 WtCom= 9.48D-01 WtEn= 5.17D-02
 Coeff-Com: -0.143D-01 0.760D-01 0.466D+00 0.472D+00
 Coeff-En:   0.000D+00 0.000D+00 0.455D+00 0.545D+00
 Coeff:     -0.135D-01 0.720D-01 0.465D+00 0.476D+00
 Gap=     0.135 Goal=   None    Shift=    0.000
 RMSDP=2.25D-04 MaxDP=9.34D-03 DE=-8.30D-04 OVMax= 2.76D-02

 Cycle   5  Pass 0  IDiag  1:
 RMSU=  5.25D-05    CP:  9.60D-01  1.09D+00  8.88D-01  4.86D-01
 E= -465.611938335838     Delta-E=       -0.003157292421 Rises=F Damp=F
 DIIS: error= 3.42D-04 at cycle   5 NSaved=   5.
 NSaved= 5 IEnMin= 5 EnMin= -465.611938335838     IErMin= 5 ErrMin= 3.42D-04
 ErrMax= 3.42D-04  0.00D+00 EMaxC= 1.00D-01 BMatC= 2.74D-05 BMatP= 2.60D-03
 IDIUse=3 WtCom= 9.97D-01 WtEn= 3.42D-03
 Coeff-Com: -0.402D-02 0.135D-01 0.166D+00 0.197D+00 0.628D+00
 Coeff-En:   0.000D+00 0.000D+00 0.000D+00 0.000D+00 0.100D+01
 Coeff:     -0.400D-02 0.134D-01 0.165D+00 0.196D+00 0.629D+00
 Gap=     0.135 Goal=   None    Shift=    0.000
 RMSDP=2.37D-05 MaxDP=1.25D-03 DE=-3.16D-03 OVMax= 1.70D-03

 Cycle   6  Pass 0  IDiag  1:
 RMSU=  1.94D-05    CP:  9.60D-01  1.09D+00  8.91D-01  4.97D-01  7.62D-01
 E= -465.611960424744     Delta-E=       -0.000022088906 Rises=F Damp=F
 DIIS: error= 1.68D-04 at cycle   6 NSaved=   6.
 NSaved= 6 IEnMin= 6 EnMin= -465.611960424744     IErMin= 6 ErrMin= 1.68D-04
 ErrMax= 1.68D-04  0.00D+00 EMaxC= 1.00D-01 BMatC= 5.45D-06 BMatP= 2.74D-05
 IDIUse=3 WtCom= 9.98D-01 WtEn= 1.68D-03
 Coeff-Com: -0.823D-03-0.109D-03 0.440D-01 0.627D-01 0.351D+00 0.543D+00
 Coeff-En:   0.000D+00 0.000D+00 0.000D+00 0.000D+00 0.134D+00 0.866D+00
 Coeff:     -0.822D-03-0.108D-03 0.439D-01 0.625D-01 0.351D+00 0.544D+00
 Gap=     0.135 Goal=   None    Shift=    0.000
 RMSDP=1.08D-05 MaxDP=4.57D-04 DE=-2.21D-05 OVMax= 8.27D-04

 Cycle   7  Pass 0  IDiag  1:
 RMSU=  5.88D-06    CP:  9.60D-01  1.09D+00  8.93D-01  5.02D-01  8.01D-01
                    CP:  5.66D-01
 E= -465.611965808446     Delta-E=       -0.000005383702 Rises=F Damp=F
 DIIS: error= 7.27D-05 at cycle   7 NSaved=   7.
 NSaved= 7 IEnMin= 7 EnMin= -465.611965808446     IErMin= 7 ErrMin= 7.27D-05
 ErrMax= 7.27D-05  0.00D+00 EMaxC= 1.00D-01 BMatC= 5.33D-07 BMatP= 5.45D-06
 IDIUse=1 WtCom= 1.00D+00 WtEn= 0.00D+00
 Coeff-Com: -0.232D-03-0.969D-03 0.161D-01 0.252D-01 0.169D+00 0.324D+00
 Coeff-Com:  0.467D+00
 Coeff:     -0.232D-03-0.969D-03 0.161D-01 0.252D-01 0.169D+00 0.324D+00
 Coeff:      0.467D+00
 Gap=     0.135 Goal=   None    Shift=    0.000
 DSYEVD-2 returned Info=       28858 IAlg= 4 N=   238 NDim=   238 NE2=   101508378 trying  DSYEV.
 RMSDP=3.70D-06 MaxDP=1.30D-04 DE=-5.38D-06 OVMax= 3.47D-04

 Initial convergence to 1.0D-05 achieved.  Increase integral accuracy.
 Cycle   8  Pass 1  IDiag  1:
 E= -465.611907407135     Delta-E=        0.000058401311 Rises=F Damp=F
 DIIS: error= 4.66D-05 at cycle   1 NSaved=   1.
 NSaved= 1 IEnMin= 1 EnMin= -465.611907407135     IErMin= 1 ErrMin= 4.66D-05
 ErrMax= 4.66D-05  0.00D+00 EMaxC= 1.00D-01 BMatC= 3.02D-07 BMatP= 3.02D-07
 IDIUse=1 WtCom= 1.00D+00 WtEn= 0.00D+00
 Coeff-Com:  0.100D+01
 Coeff:      0.100D+01
 Gap=     0.135 Goal=   None    Shift=    0.000
 RMSDP=3.70D-06 MaxDP=1.30D-04 DE= 5.84D-05 OVMax= 2.67D-04

 Cycle   9  Pass 1  IDiag  1:
 RMSU=  2.26D-05    CP:  1.00D+00
 E= -465.611907544325     Delta-E=       -0.000000137189 Rises=F Damp=F
 DIIS: error= 3.09D-05 at cycle   2 NSaved=   2.
 NSaved= 2 IEnMin= 2 EnMin= -465.611907544325     IErMin= 2 ErrMin= 3.09D-05
 ErrMax= 3.09D-05  0.00D+00 EMaxC= 1.00D-01 BMatC= 1.24D-07 BMatP= 3.02D-07
 IDIUse=1 WtCom= 1.00D+00 WtEn= 0.00D+00
 Coeff-Com:  0.339D+00 0.661D+00
 Coeff:      0.339D+00 0.661D+00
 Gap=     0.135 Goal=   None    Shift=    0.000
 RMSDP=2.96D-06 MaxDP=1.19D-04 DE=-1.37D-07 OVMax= 2.92D-04

 Cycle  10  Pass 1  IDiag  1:
 RMSU=  2.96D-06    CP:  1.00D+00  9.98D-01
 E= -465.611907550947     Delta-E=       -0.000000006622 Rises=F Damp=F
 DIIS: error= 3.26D-05 at cycle   3 NSaved=   3.
 NSaved= 3 IEnMin= 3 EnMin= -465.611907550947     IErMin= 2 ErrMin= 3.09D-05
 ErrMax= 3.26D-05  0.00D+00 EMaxC= 1.00D-01 BMatC= 1.21D-07 BMatP= 1.24D-07
 IDIUse=1 WtCom= 1.00D+00 WtEn= 0.00D+00
 Coeff-Com:  0.943D-02 0.494D+00 0.496D+00
 Coeff:      0.943D-02 0.494D+00 0.496D+00
 Gap=     0.135 Goal=   None    Shift=    0.000
 RMSDP=1.50D-06 MaxDP=6.11D-05 DE=-6.62D-09 OVMax= 1.49D-04

 Cycle  11  Pass 1  IDiag  1:
 RMSU=  3.51D-07    CP:  1.00D+00  1.01D+00  5.11D-01
 E= -465.611907693036     Delta-E=       -0.000000142089 Rises=F Damp=F
 DIIS: error= 2.63D-06 at cycle   4 NSaved=   4.
 NSaved= 4 IEnMin= 4 EnMin= -465.611907693036     IErMin= 4 ErrMin= 2.63D-06
 ErrMax= 2.63D-06  0.00D+00 EMaxC= 1.00D-01 BMatC= 2.40D-09 BMatP= 1.21D-07
 IDIUse=1 WtCom= 1.00D+00 WtEn= 0.00D+00
 Coeff-Com: -0.264D-02 0.272D+00 0.286D+00 0.445D+00
 Coeff:     -0.264D-02 0.272D+00 0.286D+00 0.445D+00
 Gap=     0.135 Goal=   None    Shift=    0.000
 RMSDP=1.85D-07 MaxDP=7.31D-06 DE=-1.42D-07 OVMax= 1.29D-05

 Cycle  12  Pass 1  IDiag  1:
 RMSU=  6.34D-08    CP:  1.00D+00  1.01D+00  5.16D-01  5.09D-01
 E= -465.611907695583     Delta-E=       -0.000000002547 Rises=F Damp=F
 DIIS: error= 4.15D-07 at cycle   5 NSaved=   5.
 NSaved= 5 IEnMin= 5 EnMin= -465.611907695583     IErMin= 5 ErrMin= 4.15D-07
 ErrMax= 4.15D-07  0.00D+00 EMaxC= 1.00D-01 BMatC= 2.24D-11 BMatP= 2.40D-09
 IDIUse=1 WtCom= 1.00D+00 WtEn= 0.00D+00
 Coeff-Com: -0.133D-02 0.108D+00 0.115D+00 0.195D+00 0.583D+00
 Coeff:     -0.133D-02 0.108D+00 0.115D+00 0.195D+00 0.583D+00
 Gap=     0.135 Goal=   None    Shift=    0.000
 RMSDP=2.61D-08 MaxDP=1.23D-06 DE=-2.55D-09 OVMax= 3.29D-06

 Cycle  13  Pass 1  IDiag  1:
 RMSU=  2.32D-08    CP:  1.00D+00  1.01D+00  5.15D-01  5.03D-01  8.34D-01
 E= -465.611907695601     Delta-E=       -0.000000000018 Rises=F Damp=F
 DIIS: error= 2.04D-07 at cycle   6 NSaved=   6.
 NSaved= 6 IEnMin= 6 EnMin= -465.611907695601     IErMin= 6 ErrMin= 2.04D-07
 ErrMax= 2.04D-07  0.00D+00 EMaxC= 1.00D-01 BMatC= 6.15D-12 BMatP= 2.24D-11
 IDIUse=1 WtCom= 1.00D+00 WtEn= 0.00D+00
 Coeff-Com: -0.610D-03 0.449D-01 0.475D-01 0.841D-01 0.367D+00 0.457D+00
 Coeff:     -0.610D-03 0.449D-01 0.475D-01 0.841D-01 0.367D+00 0.457D+00
 Gap=     0.135 Goal=   None    Shift=    0.000
 RMSDP=1.20D-08 MaxDP=6.47D-07 DE=-1.75D-11 OVMax= 1.49D-06

 Cycle  14  Pass 1  IDiag  1:
 RMSU=  7.95D-09    CP:  1.00D+00  1.01D+00  5.16D-01  5.07D-01  8.96D-01
                    CP:  6.71D-01
 E= -465.611907695613     Delta-E=       -0.000000000012 Rises=F Damp=F
 DIIS: error= 4.67D-08 at cycle   7 NSaved=   7.
 NSaved= 7 IEnMin= 7 EnMin= -465.611907695613     IErMin= 7 ErrMin= 4.67D-08
 ErrMax= 4.67D-08  0.00D+00 EMaxC= 1.00D-01 BMatC= 2.48D-13 BMatP= 6.15D-12
 IDIUse=1 WtCom= 1.00D+00 WtEn= 0.00D+00
 Coeff-Com:  0.834D-04-0.829D-02-0.867D-02-0.127D-01 0.242D-02 0.167D+00
 Coeff-Com:  0.860D+00
 Coeff:      0.834D-04-0.829D-02-0.867D-02-0.127D-01 0.242D-02 0.167D+00
 Coeff:      0.860D+00
 Gap=     0.135 Goal=   None    Shift=    0.000
 RMSDP=3.11D-09 MaxDP=8.66D-08 DE=-1.21D-11 OVMax= 4.12D-07

 SCF Done:  E(RB3LYP) =  -465.611907696     A.U. after   14 cycles
            NFock= 14  Conv=0.31D-08     -V/T= 2.0083
 KE= 4.617629621959D+02 PE=-2.126886094537D+03 EE= 6.747017705994D+02
 Leave Link  502 at Thu Mar  5 11:33:13 2020, MaxMem= 24159191040 cpu:             243.5 elap:              10.2
 (Enter /opt/g16/l601.exe)
 Copying SCF densities to generalized density rwf, IOpCl= 0 IROHF=0.

 **********************************************************************

            Population analysis using the SCF density.

 **********************************************************************

 Orbital symmetries:
       Occupied  (A) (A) (A) (A) (A) (A) (A) (A) (A) (A) (A) (A)
                 (A) (A) (A) (A) (A) (A) (A) (A) (A) (A) (A) (A)
                 (A) (A) (A) (A) (A) (A) (A) (A) (A) (A) (A) (A)
                 (A) (A) (A) (A) (A) (A) (A)
       Virtual   (A) (A) (A) (A) (A) (A) (A) (A) (A) (A) (A) (A)
                 (A) (A) (A) (A) (A) (A) (A) (A) (A) (A) (A) (A)
                 (A) (A) (A) (A) (A) (A) (A) (A) (A) (A) (A) (A)
                 (A) (A) (A) (A) (A) (A) (A) (A) (A) (A) (A) (A)
                 (A) (A) (A) (A) (A) (A) (A) (A) (A) (A) (A) (A)
                 (A) (A) (A) (A) (A) (A) (A) (A) (A) (A) (A) (A)
                 (A) (A) (A) (A) (A) (A) (A) (A) (A) (A) (A) (A)
                 (A) (A) (A) (A) (A) (A) (A) (A) (A) (A) (A) (A)
                 (A) (A) (A) (A) (A) (A) (A) (A) (A) (A) (A) (A)
                 (A) (A) (A) (A) (A) (A) (A) (A) (A) (A) (A) (A)
                 (A) (A) (A) (A) (A) (A) (A) (A) (A) (A) (A) (A)
                 (A) (A) (A) (A) (A) (A) (A) (A) (A) (A) (A) (A)
                 (A) (A) (A) (A) (A) (A) (A) (A) (A) (A) (A) (A)
                 (A) (A) (A) (A) (A) (A) (A) (A) (A) (A) (A) (A)
                 (A) (A) (A) (A) (A) (A) (A) (A) (A) (A) (A) (A)
                 (A) (A) (A) (A) (A) (A) (A) (A) (A) (A) (A) (A)
                 (A) (A) (A)
 The electronic state is 1-A.
 Alpha  occ. eigenvalues --  -10.20078 -10.20037 -10.19949 -10.19939 -10.19932
 Alpha  occ. eigenvalues --  -10.19916 -10.19877 -10.19867 -10.19789 -10.19768
 Alpha  occ. eigenvalues --  -10.18386 -10.18340  -0.82001  -0.80803  -0.78922
 Alpha  occ. eigenvalues --   -0.76447  -0.73548  -0.70736  -0.61985  -0.58880
 Alpha  occ. eigenvalues --   -0.57268  -0.56463  -0.55811  -0.55411  -0.48167
 Alpha  occ. eigenvalues --   -0.47470  -0.45749  -0.45708  -0.41969  -0.41915
 Alpha  occ. eigenvalues --   -0.39866  -0.39274  -0.38434  -0.38238  -0.36919
 Alpha  occ. eigenvalues --   -0.35049  -0.34457  -0.32958  -0.32953  -0.30569
 Alpha  occ. eigenvalues --   -0.27376  -0.23578  -0.19835
 Alpha virt. eigenvalues --   -0.06289  -0.02243   0.02007   0.05249   0.06004
 Alpha virt. eigenvalues --    0.06917   0.07289   0.07388   0.08748   0.08769
 Alpha virt. eigenvalues --    0.09469   0.09981   0.10083   0.11032   0.12530
 Alpha virt. eigenvalues --    0.13006   0.15123   0.15226   0.16677   0.18736
 Alpha virt. eigenvalues --    0.21532   0.25522   0.26354   0.27226   0.29201
 Alpha virt. eigenvalues --    0.29366   0.31743   0.33616   0.35489   0.36807
 Alpha virt. eigenvalues --    0.38332   0.39835   0.41062   0.45553   0.46254
 Alpha virt. eigenvalues --    0.46434   0.46991   0.48041   0.48768   0.49177
 Alpha virt. eigenvalues --    0.50257   0.50326   0.50595   0.50782   0.51222
 Alpha virt. eigenvalues --    0.51659   0.52817   0.52863   0.53806   0.54231
 Alpha virt. eigenvalues --    0.56627   0.56732   0.58222   0.59675   0.61692
 Alpha virt. eigenvalues --    0.65680   0.65775   0.65960   0.65988   0.66812
 Alpha virt. eigenvalues --    0.67565   0.67832   0.68348   0.69101   0.69155
 Alpha virt. eigenvalues --    0.70296   0.71725   0.73585   0.74211   0.75883
 Alpha virt. eigenvalues --    0.76100   0.83753   0.84444   0.86544   0.87954
 Alpha virt. eigenvalues --    0.88085   0.89090   0.90290   0.90957   0.91122
 Alpha virt. eigenvalues --    0.93018   0.94344   0.94938   0.95638   0.96156
 Alpha virt. eigenvalues --    0.96844   0.98174   0.99469   1.00734   1.00930
 Alpha virt. eigenvalues --    1.01363   1.02908   1.03810   1.04426   1.06451
 Alpha virt. eigenvalues --    1.06455   1.07740   1.07794   1.08068   1.12026
 Alpha virt. eigenvalues --    1.15559   1.15560   1.19035   1.30878   1.34102
 Alpha virt. eigenvalues --    1.34660   1.36645   1.39785   1.40047   1.40826
 Alpha virt. eigenvalues --    1.42004   1.43035   1.45306   1.46617   1.46882
 Alpha virt. eigenvalues --    1.46947   1.48340   1.49494   1.51558   1.53694
 Alpha virt. eigenvalues --    1.54490   1.54538   1.55462   1.56811   1.57893
 Alpha virt. eigenvalues --    1.59252   1.59955   1.61860   1.62296   1.63930
 Alpha virt. eigenvalues --    1.64993   1.65446   1.66870   1.68051   1.68521
 Alpha virt. eigenvalues --    1.68808   1.69832   1.71045   1.72370   1.76178
 Alpha virt. eigenvalues --    1.78023   1.78123   1.78625   1.80404   1.81917
 Alpha virt. eigenvalues --    1.82387   1.84773   1.86681   1.93206   1.93693
 Alpha virt. eigenvalues --    1.93827   1.94762   1.97741   1.98493   1.99157
 Alpha virt. eigenvalues --    2.02170   2.03169   2.03363   2.05133   2.06514
 Alpha virt. eigenvalues --    2.09972   2.11868   2.13039   2.13632   2.16926
 Alpha virt. eigenvalues --    2.16946   2.17034   2.20505   2.21454   2.21858
 Alpha virt. eigenvalues --    2.22531   2.25932   2.27442   2.27952   2.28745
 Alpha virt. eigenvalues --    2.30871   2.32467   2.34310   2.34394   2.35993
 Alpha virt. eigenvalues --    2.36343   2.50608   2.50629   2.68988   2.70293
 Alpha virt. eigenvalues --    2.72590   2.73005   2.74629   2.81371   2.92811
 Alpha virt. eigenvalues --    3.01712   3.10080   3.10200   3.14170   3.15048
          Condensed to atoms (all electrons):
               1          2          3          4          5          6
     1  C    4.613857   0.371973   0.361037   0.683666  -0.042403  -0.035255
     2  H    0.371973   0.694309  -0.057971  -0.003656   0.011154  -0.022418
     3  H    0.361037  -0.057971   0.693643   0.005419  -0.016060   0.007524
     4  C    0.683666  -0.003656   0.005419   4.661269   0.389008   0.383132
     5  H   -0.042403   0.011154  -0.016060   0.389008   0.732135  -0.050559
     6  C   -0.035255  -0.022418   0.007524   0.383132  -0.050559   4.801895
     7  H   -0.007115   0.002959   0.000090  -0.050131   0.006266   0.385490
     8  C    0.002456   0.001689  -0.000525  -0.023470  -0.006019   0.565645
     9  H    0.000904   0.000026  -0.000019  -0.014211   0.002747  -0.043613
    10  C   -0.000382  -0.000029   0.000010   0.005473   0.000411  -0.020933
    11  H   -0.000009   0.000008   0.000000   0.000347   0.000012  -0.005688
    12  C    0.000008  -0.000000  -0.000000  -0.000365  -0.000011   0.002091
    13  H    0.000000   0.000000  -0.000000  -0.000014   0.000004   0.001208
    14  C   -0.000000   0.000000   0.000000   0.000004   0.000000  -0.000372
    15  H    0.000000   0.000000  -0.000000   0.000000  -0.000000  -0.000011
    16  C   -0.000000  -0.000000   0.000000  -0.000000   0.000000   0.000008
    17  H   -0.000000   0.000000  -0.000000   0.000000   0.000000   0.000000
    18  C    0.000000   0.000000  -0.000000   0.000000  -0.000000  -0.000000
    19  H    0.000000  -0.000000   0.000000  -0.000000  -0.000000   0.000000
    20  C   -0.000000   0.000000   0.000000   0.000000   0.000000  -0.000000
    21  H    0.000000   0.000000  -0.000000   0.000000   0.000000  -0.000000
    22  C    0.000000  -0.000000   0.000000  -0.000000   0.000000   0.000000
    23  H   -0.000000   0.000000   0.000000   0.000000   0.000000   0.000000
    24  C    0.000000   0.000000   0.000000   0.000000  -0.000000  -0.000000
    25  H    0.000000  -0.000000   0.000000  -0.000000   0.000000   0.000000
    26  H    0.000000   0.000000   0.000000   0.000000   0.000000   0.000000
               7          8          9         10         11         12
     1  C   -0.007115   0.002456   0.000904  -0.000382  -0.000009   0.000008
     2  H    0.002959   0.001689   0.000026  -0.000029   0.000008  -0.000000
     3  H    0.000090  -0.000525  -0.000019   0.000010   0.000000  -0.000000
     4  C   -0.050131  -0.023470  -0.014211   0.005473   0.000347  -0.000365
     5  H    0.006266  -0.006019   0.002747   0.000411   0.000012  -0.000011
     6  C    0.385490   0.565645  -0.043613  -0.020933  -0.005688   0.002091
     7  H    0.730470  -0.037137   0.010656  -0.015200   0.002429   0.001352
     8  C   -0.037137   4.794284   0.390326   0.362543  -0.051864  -0.023029
     9  H    0.010656   0.390326   0.732193  -0.051046   0.006064  -0.005512
    10  C   -0.015200   0.362543  -0.051046   4.801047   0.388244   0.565033
    11  H    0.002429  -0.051864   0.006064   0.388244   0.732604  -0.040082
    12  C    0.001352  -0.023029  -0.005512   0.565033  -0.040082   4.797658
    13  H    0.000028  -0.014625   0.002437  -0.041236   0.010650   0.388910
    14  C   -0.000016   0.005613   0.000406  -0.022424  -0.014911   0.365665
    15  H    0.000004   0.000400   0.000011  -0.005521   0.002424  -0.051905
    16  C    0.000000  -0.000377  -0.000011   0.002232   0.001308  -0.023252
    17  H    0.000000  -0.000015   0.000003   0.001270   0.000028  -0.014709
    18  C    0.000000   0.000004   0.000000  -0.000376  -0.000016   0.005614
    19  H    0.000000   0.000000  -0.000000  -0.000012   0.000003   0.000420
    20  C   -0.000000  -0.000000   0.000000   0.000008   0.000000  -0.000373
    21  H    0.000000   0.000000   0.000000   0.000000   0.000000  -0.000015
    22  C    0.000000   0.000000  -0.000000  -0.000000   0.000000   0.000004
    23  H    0.000000  -0.000000  -0.000000   0.000000   0.000000   0.000000
    24  C    0.000000   0.000000   0.000000  -0.000000   0.000000  -0.000000
    25  H    0.000000   0.000000  -0.000000  -0.000000   0.000000   0.000000
    26  H   -0.000000  -0.000000   0.000000   0.000000  -0.000000   0.000000
              13         14         15         16         17         18
     1  C    0.000000  -0.000000   0.000000  -0.000000  -0.000000   0.000000
     2  H    0.000000   0.000000   0.000000  -0.000000   0.000000   0.000000
     3  H   -0.000000   0.000000  -0.000000   0.000000  -0.000000  -0.000000
     4  C   -0.000014   0.000004   0.000000  -0.000000   0.000000   0.000000
     5  H    0.000004   0.000000  -0.000000   0.000000   0.000000  -0.000000
     6  C    0.001208  -0.000372  -0.000011   0.000008   0.000000  -0.000000
     7  H    0.000028  -0.000016   0.000004   0.000000   0.000000   0.000000
     8  C   -0.014625   0.005613   0.000400  -0.000377  -0.000015   0.000004
     9  H    0.002437   0.000406   0.000011  -0.000011   0.000003   0.000000
    10  C   -0.041236  -0.022424  -0.005521   0.002232   0.001270  -0.000376
    11  H    0.010650  -0.014911   0.002424   0.001308   0.000028  -0.000016
    12  C    0.388910   0.365665  -0.051905  -0.023252  -0.014709   0.005614
    13  H    0.732648  -0.051460   0.006056  -0.005496   0.002419   0.000387
    14  C   -0.051460   4.795564   0.388772   0.565030  -0.040237  -0.022187
    15  H    0.006056   0.388772   0.733228  -0.041092   0.010651  -0.014830
    16  C   -0.005496   0.565030  -0.041092   4.803204   0.388378   0.362510
    17  H    0.002419  -0.040237   0.010651   0.388378   0.732110  -0.051449
    18  C    0.000387  -0.022187  -0.014830   0.362510  -0.051449   4.792521
    19  H    0.000011  -0.005537   0.002441  -0.051487   0.006064   0.390174
    20  C   -0.000010   0.002085   0.001247  -0.021777  -0.005655   0.565599
    21  H    0.000004   0.001313   0.000028  -0.014989   0.002427  -0.037379
    22  C    0.000000  -0.000363  -0.000016   0.005484   0.000333  -0.022604
    23  H   -0.000000  -0.000013   0.000004   0.000427   0.000012  -0.006045
    24  C    0.000000   0.000008   0.000000  -0.000382  -0.000008   0.002351
    25  H    0.000000  -0.000000   0.000000  -0.000027   0.000008   0.001674
    26  H   -0.000000  -0.000000  -0.000000   0.000010   0.000000  -0.000519
              19         20         21         22         23         24
     1  C    0.000000  -0.000000   0.000000   0.000000  -0.000000   0.000000
     2  H   -0.000000   0.000000   0.000000  -0.000000   0.000000   0.000000
     3  H    0.000000   0.000000  -0.000000   0.000000   0.000000   0.000000
     4  C   -0.000000   0.000000   0.000000  -0.000000   0.000000   0.000000
     5  H   -0.000000   0.000000   0.000000   0.000000   0.000000  -0.000000
     6  C    0.000000  -0.000000  -0.000000   0.000000   0.000000  -0.000000
     7  H    0.000000  -0.000000   0.000000   0.000000   0.000000   0.000000
     8  C    0.000000  -0.000000   0.000000   0.000000  -0.000000   0.000000
     9  H   -0.000000   0.000000   0.000000  -0.000000  -0.000000   0.000000
    10  C   -0.000012   0.000008   0.000000  -0.000000   0.000000  -0.000000
    11  H    0.000003   0.000000   0.000000   0.000000   0.000000   0.000000
    12  C    0.000420  -0.000373  -0.000015   0.000004   0.000000  -0.000000
    13  H    0.000011  -0.000010   0.000004   0.000000  -0.000000   0.000000
    14  C   -0.005537   0.002085   0.001313  -0.000363  -0.000013   0.000008
    15  H    0.002441   0.001247   0.000028  -0.000016   0.000004   0.000000
    16  C   -0.051487  -0.021777  -0.014989   0.005484   0.000427  -0.000382
    17  H    0.006064  -0.005655   0.002427   0.000333   0.000012  -0.000008
    18  C    0.390174   0.565599  -0.037379  -0.022604  -0.006045   0.002351
    19  H    0.732820  -0.043421   0.010658  -0.014429   0.002745   0.000939
    20  C   -0.043421   4.803880   0.385668   0.382961  -0.051037  -0.035449
    21  H    0.010658   0.385668   0.730068  -0.049818   0.006266  -0.007041
    22  C   -0.014429   0.382961  -0.049818   4.660424   0.388835   0.684097
    23  H    0.002745  -0.051037   0.006266   0.388835   0.733276  -0.042376
    24  C    0.000939  -0.035449  -0.007041   0.684097  -0.042376   4.614670
    25  H    0.000027  -0.022427   0.002977  -0.003650   0.011254   0.371746
    26  H   -0.000020   0.007600   0.000077   0.005934  -0.016364   0.360796
              25         26
     1  C    0.000000   0.000000
     2  H   -0.000000   0.000000
     3  H    0.000000   0.000000
     4  C   -0.000000   0.000000
     5  H    0.000000   0.000000
     6  C    0.000000   0.000000
     7  H    0.000000  -0.000000
     8  C    0.000000  -0.000000
     9  H   -0.000000   0.000000
    10  C   -0.000000   0.000000
    11  H    0.000000  -0.000000
    12  C    0.000000   0.000000
    13  H    0.000000  -0.000000
    14  C   -0.000000  -0.000000
    15  H    0.000000  -0.000000
    16  C   -0.000027   0.000010
    17  H    0.000008   0.000000
    18  C    0.001674  -0.000519
    19  H    0.000027  -0.000020
    20  C   -0.022427   0.007600
    21  H    0.002977   0.000077
    22  C   -0.003650   0.005934
    23  H    0.011254  -0.016364
    24  C    0.371746   0.360796
    25  H    0.695025  -0.058135
    26  H   -0.058135   0.693769
 Mulliken charges:
               1
     1  C    0.051261
     2  H    0.001956
     3  H    0.006853
     4  C   -0.036470
     5  H   -0.026683
     6  C    0.031855
     7  H   -0.030145
     8  C    0.034101
     9  H   -0.031362
    10  C    0.030888
    11  H   -0.031552
    12  C    0.032500
    13  H   -0.031921
    14  C    0.033064
    15  H   -0.031893
    16  C    0.030298
    17  H   -0.031632
    18  C    0.034572
    19  H   -0.031394
    20  C    0.031100
    21  H   -0.030244
    22  C   -0.037193
    23  H   -0.026985
    24  C    0.050647
    25  H    0.001529
    26  H    0.006851
 Sum of Mulliken charges =  -0.00000
 Mulliken charges with hydrogens summed into heavy atoms:
               1
     1  C    0.060070
     4  C   -0.063153
     6  C    0.001711
     8  C    0.002739
    10  C   -0.000664
    12  C    0.000579
    14  C    0.001170
    16  C   -0.001334
    18  C    0.003177
    20  C    0.000856
    22  C   -0.064177
    24  C    0.059027
 Electronic spatial extent (au):  <R**2>=           6322.3625
 Charge=             -0.0000 electrons
 Dipole moment (field-independent basis, Debye):
    X=             -0.0423    Y=              0.0049    Z=              0.0000  Tot=              0.0426
 Quadrupole moment (field-independent basis, Debye-Ang):
   XX=            -69.3994   YY=            -64.5182   ZZ=            -80.8347
   XY=             -0.9429   XZ=             -0.0000   YZ=             -0.0000
 Traceless Quadrupole moment (field-independent basis, Debye-Ang):
   XX=              2.1847   YY=              7.0659   ZZ=             -9.2506
   XY=             -0.9429   XZ=             -0.0000   YZ=             -0.0000
 Octapole moment (field-independent basis, Debye-Ang**2):
  XXX=             -1.9495  YYY=              0.0888  ZZZ=              0.0000  XYY=              0.0289
  XXY=              0.2194  XXZ=             -0.0000  XZZ=             -0.0394  YZZ=              0.0022
  YYZ=              0.0000  XYZ=             -0.0000
 Hexadecapole moment (field-independent basis, Debye-Ang**3):
 XXXX=          -8134.3237 YYYY=           -209.3263 ZZZZ=            -89.3714 XXXY=            -64.8845
 XXXZ=              0.0001 YYYX=             -1.3049 YYYZ=              0.0000 ZZZX=              0.0002
 ZZZY=              0.0000 XXYY=          -1333.3524 XXZZ=          -1619.4657 YYZZ=            -55.2199
 XXYZ=             -0.0000 YYXZ=              0.0001 ZZXY=              0.1306
 N-N= 5.248094540462D+02 E-N=-2.126886092681D+03  KE= 4.617629621959D+02
 No NMR shielding tensors so no spin-rotation constants.
 Leave Link  601 at Thu Mar  5 11:33:14 2020, MaxMem= 24159191040 cpu:               4.5 elap:               0.2
 (Enter /opt/g16/l701.exe)
 ... and contract with generalized density number  0.
 Compute integral first derivatives.
 Leave Link  701 at Thu Mar  5 11:33:14 2020, MaxMem= 24159191040 cpu:               4.4 elap:               0.2
 (Enter /opt/g16/l702.exe)
 L702 exits ... SP integral derivatives will be done elsewhere.
 Leave Link  702 at Thu Mar  5 11:33:14 2020, MaxMem= 24159191040 cpu:               0.4 elap:               0.0
 (Enter /opt/g16/l703.exe)
 Integral derivatives from FoFJK, PRISM(SPDF).
 Compute integral first derivatives, UseDBF=F ICtDFT=           0.
 Calling FoFJK, ICntrl=      2127 FMM=F ISym2X=0 I1Cent= 0 IOpClX= 0 NMat=1 NMatS=1 NMatT=0.
 FoFJK:  IHMeth= 1 ICntrl=    2127 DoSepK=F KAlg= 0 I1Cent=           0 FoldK=F
 IRaf=         0 NMat=       1 IRICut=       1 DoRegI=T DoRafI=F ISym2E= 0 IDoP0=0 IntGTp=1.
 FoFCou: FMM=F IPFlag=           0 FMFlag=      100000 FMFlg1=         800
         NFxFlg=           0 DoJE=F BraDBF=F KetDBF=F FulRan=T
         wScrn=  0.000000 ICntrl=      2127 IOpCl=  0 I1Cent=           0 NGrid=           0
         NMat0=    1 NMatS0=      1 NMatT0=    0 NMatD0=    1 NMtDS0=    0 NMtDT0=    0
 Symmetry not used in FoFCou.
 Leave Link  703 at Thu Mar  5 11:33:16 2020, MaxMem= 24159191040 cpu:              47.0 elap:               2.0
 (Enter /opt/g16/l716.exe)
 Dipole        =-1.66484753D-02 1.93044580D-03 2.96300202D-08
 ***** Axes restored to original set *****
 -------------------------------------------------------------------
 Center     Atomic                   Forces (Hartrees/Bohr)
 Number     Number              X              Y              Z
 -------------------------------------------------------------------
      1        6           0.011011792    0.031148346    0.000000000
      2        1           0.005556828   -0.015601643   -0.000000000
      3        1          -0.016210739   -0.003704432    0.000000000
      4        6           0.047719712   -0.043994200   -0.000000000
      5        1          -0.004024421    0.017106776   -0.000000000
      6        6          -0.055198089    0.037840813   -0.000000000
      7        1           0.003898824   -0.016910225    0.000000000
      8        6           0.057646293   -0.037799380    0.000000000
      9        1          -0.004235421    0.016743549   -0.000000000
     10        6          -0.058204046    0.036822356    0.000000000
     11        1           0.003941438   -0.016853146   -0.000000000
     12        6           0.058684803   -0.036944546   -0.000000001
     13        1          -0.004116159    0.016700862    0.000000000
     14        6          -0.058387160    0.037194308   -0.000000000
     15        1           0.003844304   -0.016901296    0.000000000
     16        6           0.058067803   -0.037264543    0.000000009
     17        1          -0.004016510    0.016699631   -0.000000000
     18        6          -0.056881391    0.038725765    0.000000005
     19        1           0.003763683   -0.016986648   -0.000000009
     20        6           0.054638944   -0.038885858   -0.000000013
     21        1          -0.003777912    0.016806634   -0.000000010
     22        6          -0.045691793    0.044954793    0.000000005
     23        1           0.003325419   -0.017466832    0.000000003
     24        6          -0.012554797   -0.030441006    0.000000023
     25        1          -0.005074718    0.015835720   -0.000000005
     26        1           0.016273314    0.003174200   -0.000000009
 -------------------------------------------------------------------
 Cartesian Forces:  Max     0.058684803 RMS     0.025865231
 Leave Link  716 at Thu Mar  5 11:33:16 2020, MaxMem= 24159191040 cpu:               0.6 elap:               0.0
 (Enter /opt/g16/l103.exe)

 GradGradGradGradGradGradGradGradGradGradGradGradGradGradGradGradGradGrad
 Berny optimization.
 FormGI is forming the generalized inverse of G from B-inverse, IUseBI=4.
 Internal  Forces:  Max     0.046651290 RMS     0.012663442
 Search for a local minimum.
 Step number   1 out of a maximum of  115
 All quantities printed in internal units (Hartrees-Bohrs-Radians)
 RMS Force = .12663D-01 SwitMx=.10000D-02 MixMth= 1
 Mixed Optimization -- RFO/linear search
 Second derivative matrix not updated -- first step.
 ITU=  0
     Eigenvalues ---    0.00237   0.00237   0.00237   0.00237   0.00237
     Eigenvalues ---    0.01459   0.01459   0.01459   0.01459   0.01459
     Eigenvalues ---    0.01463   0.01463   0.01463   0.01463   0.01463
     Eigenvalues ---    0.02681   0.02681   0.02681   0.02681   0.02681
     Eigenvalues ---    0.02681   0.02681   0.02681   0.16000   0.16000
     Eigenvalues ---    0.16000   0.16000   0.16000   0.16000   0.16000
     Eigenvalues ---    0.16000   0.16000   0.16000   0.16000   0.16000
     Eigenvalues ---    0.16000   0.16000   0.22000   0.22000   0.22000
     Eigenvalues ---    0.22000   0.22000   0.22000   0.22000   0.22000
     Eigenvalues ---    0.22000   0.22000   0.28519   0.28519   0.28519
     Eigenvalues ---    0.28519   0.28519   0.37230   0.37230   0.37230
     Eigenvalues ---    0.37230   0.37230   0.37230   0.37230   0.37230
     Eigenvalues ---    0.37230   0.37230   0.37230   0.37230   0.37230
     Eigenvalues ---    0.37230   0.53930   0.53930   0.53930   0.53930
     Eigenvalues ---    0.53930   0.53930
 RFO step:  Lambda=-4.99334086D-02 EMin= 2.36824148D-03
 Linear search not attempted -- first point.
 Maximum step size (   0.300) exceeded in Quadratic search.
    -- Step size scaled by   0.768
 Iteration  1 RMS(Cart)=  0.05318415 RMS(Int)=  0.00040127
 Iteration  2 RMS(Cart)=  0.00124420 RMS(Int)=  0.00000009
 Iteration  3 RMS(Cart)=  0.00000013 RMS(Int)=  0.00000000
 ITry= 1 IFail=0 DXMaxC= 2.00D-01 DCOld= 1.00D+10 DXMaxT= 3.00D-01 DXLimC= 3.00D+00 Rises=F
 Variable       Old X    -DE/DX   Delta X   Delta X   Delta X     New X
                                 (Linear)    (Quad)   (Total)
    R1        2.02201   0.01630   0.00000   0.02964   0.02964   2.05165
    R2        2.02201   0.01621   0.00000   0.02948   0.02948   2.05149
    R3        2.56096  -0.01045   0.00000  -0.01361  -0.01361   2.54734
    R4        2.02201   0.01684   0.00000   0.03062   0.03062   2.05263
    R5        2.91018  -0.04405   0.00000  -0.10095  -0.10095   2.80923
    R6        2.02201   0.01660   0.00000   0.03020   0.03020   2.05221
    R7        2.56096  -0.00144   0.00000  -0.00187  -0.00187   2.55908
    R8        2.02201   0.01665   0.00000   0.03029   0.03029   2.05230
    R9        2.91018  -0.04625   0.00000  -0.10599  -0.10599   2.80418
   R10        2.02201   0.01661   0.00000   0.03020   0.03020   2.05221
   R11        2.56096  -0.00001   0.00000  -0.00002  -0.00002   2.56094
   R12        2.02201   0.01659   0.00000   0.03017   0.03017   2.05217
   R13        2.91018  -0.04665   0.00000  -0.10690  -0.10690   2.80327
   R14        2.02201   0.01663   0.00000   0.03024   0.03024   2.05225
   R15        2.56096  -0.00001   0.00000  -0.00002  -0.00002   2.56094
   R16        2.02201   0.01656   0.00000   0.03013   0.03013   2.05213
   R17        2.91018  -0.04625   0.00000  -0.10599  -0.10599   2.80419
   R18        2.02201   0.01669   0.00000   0.03036   0.03036   2.05237
   R19        2.56096  -0.00145   0.00000  -0.00188  -0.00188   2.55907
   R20        2.02201   0.01657   0.00000   0.03014   0.03014   2.05215
   R21        2.91018  -0.04409   0.00000  -0.10104  -0.10104   2.80914
   R22        2.02201   0.01693   0.00000   0.03080   0.03080   2.05281
   R23        2.56096  -0.01045   0.00000  -0.01362  -0.01362   2.54734
   R24        2.02201   0.01636   0.00000   0.02975   0.02975   2.05175
   R25        2.02201   0.01617   0.00000   0.02941   0.02941   2.05142
    A1        2.09241  -0.00449   0.00000  -0.01642  -0.01642   2.07599
    A2        2.09836   0.00149   0.00000   0.00544   0.00544   2.10380
    A3        2.09241   0.00300   0.00000   0.01098   0.01098   2.10339
    A4        2.09836  -0.00087   0.00000   0.00165   0.00165   2.10001
    A5        2.09241   0.01193   0.00000   0.03394   0.03394   2.12635
    A6        2.09241  -0.01105   0.00000  -0.03559  -0.03559   2.05683
    A7        2.09241  -0.01033   0.00000  -0.03355  -0.03355   2.05887
    A8        2.09836   0.01047   0.00000   0.02978   0.02978   2.12813
    A9        2.09241  -0.00013   0.00000   0.00377   0.00377   2.09619
   A10        2.09836  -0.00126   0.00000   0.00018   0.00018   2.09853
   A11        2.09241   0.01176   0.00000   0.03347   0.03347   2.12588
   A12        2.09241  -0.01050   0.00000  -0.03364  -0.03364   2.05877
   A13        2.09241  -0.01032   0.00000  -0.03337  -0.03337   2.05905
   A14        2.09836   0.01077   0.00000   0.03063   0.03063   2.12898
   A15        2.09241  -0.00045   0.00000   0.00274   0.00274   2.09516
   A16        2.09836  -0.00123   0.00000   0.00026   0.00026   2.09861
   A17        2.09241   0.01167   0.00000   0.03319   0.03319   2.12560
   A18        2.09241  -0.01044   0.00000  -0.03344  -0.03344   2.05897
   A19        2.09241  -0.01037   0.00000  -0.03354  -0.03354   2.05888
   A20        2.09836   0.01086   0.00000   0.03089   0.03089   2.12925
   A21        2.09241  -0.00048   0.00000   0.00264   0.00264   2.09506
   A22        2.09836  -0.00119   0.00000   0.00034   0.00034   2.09870
   A23        2.09241   0.01158   0.00000   0.03293   0.03293   2.12535
   A24        2.09241  -0.01038   0.00000  -0.03327  -0.03327   2.05914
   A25        2.09241  -0.01044   0.00000  -0.03372  -0.03372   2.05870
   A26        2.09836   0.01095   0.00000   0.03116   0.03116   2.12952
   A27        2.09241  -0.00052   0.00000   0.00256   0.00256   2.09497
   A28        2.09836  -0.00088   0.00000   0.00137   0.00137   2.09972
   A29        2.09241   0.01128   0.00000   0.03208   0.03208   2.12450
   A30        2.09241  -0.01040   0.00000  -0.03345  -0.03345   2.05897
   A31        2.09241  -0.01099   0.00000  -0.03573  -0.03573   2.05669
   A32        2.09836   0.01103   0.00000   0.03137   0.03137   2.12973
   A33        2.09241  -0.00003   0.00000   0.00436   0.00436   2.09677
   A34        2.09836   0.00159   0.00000   0.00581   0.00581   2.10417
   A35        2.09241   0.00290   0.00000   0.01062   0.01062   2.10303
   A36        2.09241  -0.00449   0.00000  -0.01643  -0.01643   2.07599
    D1        3.14159  -0.00000   0.00000  -0.00000  -0.00000   3.14159
    D2        0.00000  -0.00000   0.00000  -0.00000  -0.00000  -0.00000
    D3        0.00000  -0.00000   0.00000  -0.00000   0.00000   0.00000
    D4        3.14159  -0.00000   0.00000  -0.00000  -0.00000   3.14159
    D5        0.00000   0.00000   0.00000   0.00000   0.00000   0.00000
    D6        3.14159  -0.00000   0.00000  -0.00000   0.00000   3.14159
    D7        3.14159   0.00000   0.00000   0.00000  -0.00000   3.14159
    D8        0.00000  -0.00000   0.00000  -0.00000   0.00000   0.00000
    D9        0.00000   0.00000   0.00000   0.00000  -0.00000   0.00000
   D10        3.14159   0.00000   0.00000   0.00000   0.00000   3.14159
   D11        3.14159  -0.00000   0.00000  -0.00000   0.00000   3.14159
   D12        0.00000   0.00000   0.00000   0.00000   0.00000   0.00000
   D13        0.00000  -0.00000   0.00000  -0.00000  -0.00000   0.00000
   D14        3.14159  -0.00000   0.00000  -0.00000   0.00000   3.14159
   D15        3.14159  -0.00000   0.00000  -0.00000   0.00000   3.14159
   D16        0.00000   0.00000   0.00000   0.00000   0.00000   0.00000
   D17        0.00000  -0.00000   0.00000  -0.00000  -0.00000  -0.00000
   D18        3.14159  -0.00000   0.00000  -0.00000  -0.00000   3.14159
   D19        3.14159  -0.00000   0.00000  -0.00000   0.00000   3.14159
   D20        0.00000  -0.00000   0.00000  -0.00000  -0.00000   0.00000
   D21        0.00000   0.00000   0.00000   0.00000   0.00000   0.00000
   D22        3.14159  -0.00000   0.00000  -0.00000   0.00000   3.14159
   D23        3.14159   0.00000   0.00000   0.00000   0.00000   3.14159
   D24        0.00000  -0.00000   0.00000  -0.00000  -0.00000   0.00000
   D25        0.00000   0.00000   0.00000  -0.00000   0.00000   0.00000
   D26        3.14159   0.00000   0.00000   0.00000   0.00000   3.14159
   D27        3.14159  -0.00000   0.00000  -0.00000   0.00000   3.14159
   D28        0.00000   0.00000   0.00000   0.00000   0.00000   0.00000
   D29        0.00000  -0.00000   0.00000  -0.00000  -0.00000   0.00000
   D30        3.14159  -0.00000   0.00000  -0.00000   0.00000   3.14159
   D31        3.14159   0.00000   0.00000  -0.00000   0.00000   3.14159
   D32       -0.00000   0.00000   0.00000   0.00000   0.00000   0.00000
   D33        0.00000  -0.00000   0.00000  -0.00000  -0.00000   0.00000
   D34       -3.14159  -0.00000   0.00000  -0.00000  -0.00000  -3.14159
   D35       -3.14159  -0.00000   0.00000  -0.00000  -0.00000  -3.14159
   D36        0.00000  -0.00000   0.00000  -0.00000  -0.00000   0.00000
   D37       -0.00000   0.00000   0.00000   0.00000   0.00000  -0.00000
   D38        3.14159   0.00000   0.00000   0.00000   0.00000   3.14159
   D39        3.14159   0.00000   0.00000   0.00000   0.00000   3.14159
   D40       -0.00000   0.00000   0.00000   0.00000   0.00000  -0.00000
   D41        0.00000   0.00000   0.00000   0.00000   0.00000   0.00000
   D42        3.14159   0.00000   0.00000   0.00000   0.00000  -3.14159
   D43       -3.14159   0.00000   0.00000  -0.00000  -0.00000   3.14159
   D44       -0.00000   0.00000   0.00000   0.00000   0.00000   0.00000
         Item               Value     Threshold  Converged?
 Maximum Force            0.046651     0.000450     NO 
 RMS     Force            0.012663     0.000300     NO 
 Maximum Displacement     0.200310     0.001800     NO 
 RMS     Displacement     0.054160     0.001200     NO 
 Predicted change in Energy=-2.586937D-02
 Lowest energy point so far.  Saving SCF results.
 GradGradGradGradGradGradGradGradGradGradGradGradGradGradGradGradGradGrad

 Leave Link  103 at Thu Mar  5 11:33:16 2020, MaxMem= 24159191040 cpu:               1.1 elap:               0.1
 (Enter /opt/g16/l202.exe)
                          Input orientation:                          
 ---------------------------------------------------------------------
 Center     Atomic      Atomic             Coordinates (Angstroms)
 Number     Number       Type             X           Y           Z
 ---------------------------------------------------------------------
      1          6           0       -3.900523    2.976773   -0.840762
      2          1           0       -3.395301    2.015805   -0.840762
      3          1           0       -4.985882    2.999751   -0.840762
      4          6           0       -3.191622    4.123313   -0.840762
      5          1           0       -3.700729    5.082818   -0.840762
      6          6           0       -1.705045    4.125977   -0.840762
      7          1           0       -1.194087    3.167710   -0.840762
      8          6           0       -0.990828    5.276531   -0.840762
      9          1           0       -1.499560    6.236037   -0.840762
     10          6           0        0.493082    5.275849   -0.840762
     11          1           0        1.002055    4.316524   -0.840762
     12          6           0        1.211387    6.425014   -0.840762
     13          1           0        0.705742    7.386076   -0.840762
     14          6           0        2.694805    6.419318   -0.840762
     15          1           0        3.200381    5.458173   -0.840762
     16          6           0        3.417294    7.565857   -0.840762
     17          1           0        2.915246    8.528778   -0.840762
     18          6           0        4.901162    7.554370   -0.840762
     19          1           0        5.402838    6.591115   -0.840762
     20          6           0        5.627897    8.697052   -0.840762
     21          1           0        5.130858    9.662576   -0.840762
     22          6           0        7.114308    8.678078   -0.840762
     23          1           0        7.609303    7.711111   -0.840762
     24          6           0        7.843653    9.811721   -0.840763
     25          1           0        7.356072   10.781824   -0.840764
     26          1           0        8.928372    9.768895   -0.840763
 ---------------------------------------------------------------------
                    Distance matrix (angstroms):
                    1          2          3          4          5
     1  C    0.000000
     2  H    1.085684   0.000000
     3  H    1.085602   1.870320   0.000000
     4  C    1.347996   2.117327   2.117017   0.000000
     5  H    2.115501   3.082184   2.447609   1.086205   0.000000
     6  C    2.478062   2.703663   3.468757   1.486579   2.213210
     7  H    2.713162   2.484397   3.795513   2.214344   3.154504
     8  C    3.708802   4.051398   4.598281   2.484634   2.716816
     9  H    4.048138   4.626467   4.756888   2.706784   2.484966
    10  C    4.958781   5.074190   5.932931   3.860749   4.198251
    11  H    5.082342   4.962867   6.131009   4.198125   4.764806
    12  C    6.166197   6.376731   7.080859   4.968331   5.092187
    13  H    6.376490   6.757097   7.185710   5.082821   4.972120
    14  C    7.439721   7.515338   8.407519   6.318359   6.533688
    15  H    7.521979   7.439954   8.547440   6.529896   6.911310
    16  C    8.637715   8.787179   9.563612   7.451770   7.538682
    17  H    8.790874   9.068728   9.643545   7.530071   7.459609
    18  C    9.920889   9.975320  10.885688   8.790069   8.949921
    19  H    9.980780   9.916688  10.991969   8.941744   9.227669
    20  C   11.113612  11.227518  12.046225   9.934939  10.004296
    21  H   11.236806  11.452882  12.113698   9.997355   9.948422
    22  C   12.402878  12.443383  13.366301  11.267568  11.396970
    23  H   12.445483  12.391038  13.447512  11.381225  11.611405
    24  C   13.588310  13.678099  14.525835  12.415123  12.475386
    25  H   13.697801  13.872098  14.590561  12.473557  12.439112
    26  H   14.515973  14.559647  15.473454  13.370372  13.470468
                    6          7          8          9         10
     6  C    0.000000
     7  H    1.085981   0.000000
     8  C    1.354209   2.118595   0.000000
     9  H    2.120042   3.083496   1.086030   0.000000
    10  C    2.480719   2.700147   1.483910   2.211919   0.000000
    11  H    2.713798   2.478470   2.212056   3.153190   1.085982
    12  C    3.713643   4.049239   2.483699   2.717526   1.355191
    13  H    4.054644   4.626442   2.707125   2.487156   2.120915
    14  C    4.961662   5.069165   3.858736   4.198367   2.480948
    15  H    5.083104   4.955560   4.195142   4.763876   2.713431
    16  C    6.170181   6.372482   4.967147   5.093513   3.714182
    17  H    6.382143   6.754826   5.082767   4.974653   4.055666
    18  C    7.442839   7.509651   6.316969   6.535078   4.962139
    19  H    7.523224   7.432302   6.527410   6.911525   5.082875
    20  C    8.640994   8.781407   7.450334   7.540374   6.170167
    21  H    8.796789   9.065772   7.530765   7.463486   6.383756
    22  C    9.924849   9.969634   8.789980   8.953340   7.444179
    23  H    9.980494   9.906673   8.938088   9.227526   7.521376
    24  C   11.113294  11.217113   9.930558  10.004056   8.637420
    25  H   11.242960  11.449016   9.998949   9.954215   8.798658
    26  H   12.037944  12.084694  10.889071  11.010125   9.557279
                   11         12         13         14         15
    11  H    0.000000
    12  C    2.118855   0.000000
    13  H    3.083820   1.085964   0.000000
    14  C    2.699471   1.483429   2.211559   0.000000
    15  H    2.477095   2.211533   3.152781   1.086004   0.000000
    16  C    4.048647   2.483455   2.717505   1.355191   2.118816
    17  H    4.626379   2.707206   2.487504   2.120948   3.083815
    18  C    5.068203   3.858742   4.198794   2.481201   2.699389
    19  H    4.953852   4.194740   4.763892   2.713477   2.476766
    20  C    6.370828   4.966661   5.093748   3.713638   4.047613
    21  H    6.754798   5.083706   4.976355   4.056240   4.626418
    22  C    7.508848   6.318289   6.537507   4.963266   5.068197
    23  H    7.428253   6.525900   6.911208   5.081439   4.951194
[...]
 ,0.00008879,0.,-0.00585918,-0.00206645,0.,0.00003615,0.00002970,0.,0.0
 0786429,-0.00212737,0.,-0.00048465,0.00048850,0.,-0.04663199,-0.007011
 80,0.,-0.00180239,0.00118981,0.,0.02956187,-0.09463714,0.,0.02831018,0
 .00042837,0.,0.05443651,0.74949667,0.,0.,-0.00002482,0.,0.,-0.00010134
 ,0.,0.,0.00030801,0.,0.,-0.00162830,0.,0.,0.00001413,0.,0.,0.00031655,
 0.,0.,0.00020616,0.,0.,0.01096571,0.,0.,-0.00021750,0.,0.,0.00445813,0
 .,0.,-0.00574247,0.00000001,0.,-0.05939847,0.,0.,0.00320190,-0.0000000
 6,-0.00000021,0.13113393,-0.00006576,0.00000489,0.,-0.00000085,-0.0000
 0591,0.,-0.00000292,-0.00000596,0.,0.00008727,-0.00003613,0.,0.0000060
 5,0.00000878,0.,-0.00005928,-0.00003050,0.,-0.00004418,-0.00005284,0.,
 0.00004053,-0.00048365,0.,0.00026535,-0.00011464,0.,0.00148020,0.00178
 124,0.,-0.00007306,-0.00132379,0.,-0.01187852,0.02831017,0.,-0.0049594
 9,-0.00049634,0.,-0.11437648,0.11047289,-0.00000003,0.12021805,0.00005
 638,-0.00002067,0.,-0.00000298,0.00000203,0.,0.00000635,0.00000595,0.,
 -0.00001124,0.00007529,0.,0.00000777,-0.00000745,0.,0.00005698,-0.0001
 3820,0.,0.,-0.00000299,0.,0.00002728,0.00048494,0.,-0.00011414,-0.0001
 5610,0.,-0.00139895,0.00090349,0.,0.00047887,0.00038551,0.,-0.00124361
 ,0.00042774,0.,-0.00049625,0.00067912,0.,0.10929778,-0.26432567,0.0000
 0007,-0.11892565,0.28448578,0.,0.,-0.00001469,0.,0.,0.00000343,0.,0.,0
 .00000130,0.,0.,0.00002042,0.,0.,0.00000476,0.,0.,-0.00001125,0.,0.,0.
 00000655,0.,0.,-0.00022993,0.,0.,0.00011843,0.,0.,-0.00193701,0.,0.,0.
 00024153,0.,0.,0.00320199,0.,0.,0.00407621,-0.00000004,0.00000007,-0.0
 3979755,0.00000003,-0.00000008,0.02551071,0.00073179,0.00138758,0.,0.0
 0002805,-0.00002473,0.,-0.00004541,-0.00001427,0.,-0.00279045,-0.00159
 261,0.,-0.00003552,0.00001933,0.,0.00423717,0.00464205,0.,0.00006644,-
 0.00004128,0.,-0.00989430,-0.00609890,0.,-0.00004480,0.00003763,0.,0.0
 1091635,0.01512040,0.,0.00016425,-0.00051599,0.,-0.05286603,-0.0466312
 8,0.00000001,0.00148043,-0.00139852,0.,-0.18333912,-0.14372016,0.00000
 008,0.00986314,0.01453697,0.,0.65826261,0.00107947,0.00104595,0.,0.000
 01307,-0.00001930,0.,0.00001133,0.00004070,0.,-0.00262361,-0.00069777,
 0.,0.00003364,-0.00006628,0.,0.00435199,0.00304418,0.,0.00005875,-0.00
 003159,0.,-0.00812131,-0.00207183,0.,-0.00003264,-0.00013736,0.,0.0151
 1941,0.00959845,0.,0.00000945,0.00029346,0.,-0.03107258,-0.00701019,0.
 ,0.00178091,0.00090350,0.,-0.14262464,-0.36360711,0.00000012,-0.015167
 21,-0.02206218,0.00000001,0.05528353,0.74974590,0.,0.,0.00003077,0.,0.
 ,-0.00000663,0.,0.,0.00000950,0.,0.,-0.00008408,0.,0.,-0.00000995,0.,0
 .,-0.00023375,0.,0.,0.00003837,0.,0.,0.00035990,0.,0.,-0.00000996,0.,0
 .,0.00367128,0.,0.,-0.00010142,0.,0.,0.00445814,0.,0.,-0.00193695,0.00
 000007,0.00000011,-0.05487166,0.,0.,0.00515580,-0.00000006,-0.00000018
 ,0.13074614,0.00000805,0.00001533,0.,0.00000027,0.00000046,0.,-0.00000
 053,0.00000045,0.,-0.00002130,-0.00001573,0.,-0.00000360,0.00000017,0.
 ,0.00006186,0.00005860,0.,0.00000598,0.00000640,0.,-0.00008645,0.00003
 516,0.,-0.00004473,0.00000047,0.,0.00016423,0.00000948,0.,-0.00014343,
 0.00014548,0.,0.00097951,-0.00180179,0.,-0.00007310,0.00047893,0.,0.00
 989641,-0.01520794,0.,-0.00135438,-0.00284648,0.,-0.11423923,0.1105476
 6,-0.00000004,0.11997904,0.00000225,-0.00000835,0.,-0.00000042,0.00000
 298,0.,-0.00000014,0.00000058,0.,0.00001968,0.00000489,0.,-0.00000557,
 0.00000150,0.,-0.00002344,-0.00003064,0.,0.00000604,0.00001040,0.,0.00
 002963,0.00003023,0.,-0.00005220,-0.00000386,0.,-0.00051596,0.00029336
 ,0.,0.00014547,0.00023946,0.,0.00228925,0.00118997,0.,-0.00132373,0.00
 038541,0.,0.01449719,-0.02200051,0.,-0.00284036,-0.00285597,0.,0.10933
 030,-0.26475173,0.00000007,-0.11892758,0.28484174,0.,0.,-0.00000614,0.
 ,0.,-0.00001054,0.,0.,0.00002330,0.,0.,-0.00008964,0.,0.,0.00000351,0.
 ,0.,0.00003603,0.,0.,0.00001668,0.,0.,0.00020010,0.,0.,0.00000717,0.,0
 .,-0.00010145,0.,0.,0.00036706,0.,0.,-0.00574229,0.,0.,0.00024153,0.,0
 .00000002,0.00516855,0.,0.,0.00871761,-0.00000006,0.00000007,-0.039555
 58,0.00000003,-0.00000008,0.02528261,-0.00048945,-0.00095534,0.,-0.000
 02162,0.00001847,0.,0.00003577,0.00000726,0.,0.00185354,0.00106466,0.,
 0.00002798,-0.00001760,0.,-0.00316130,-0.00307188,0.,-0.00002999,0.000
 03703,0.,0.00639716,0.00298570,0.,0.00007272,0.00001480,0.,-0.00989450
 ,-0.00812198,0.,-0.00008644,0.00002963,0.,0.02034175,0.00786468,0.,0.0
 0004046,0.00002732,0.,-0.05213357,-0.02983653,0.,0.00099081,0.00228754
 ,0.,-0.27357662,0.02853025,0.00000002,-0.01178566,-0.00129748,0.000000
 02,0.65997902,-0.00062127,-0.00041023,0.,-0.00000023,0.00000707,0.,-0.
 00002196,-0.00003380,0.,0.00117745,0.00009395,0.,-0.00002725,0.0000539
 8,0.,-0.00185687,-0.00091720,0.,-0.00001856,0.00000526,0.,0.00298522,0
 .00038234,0.,-0.00003607,0.00008473,0.,-0.00609813,-0.00207150,0.,0.00
 003516,0.00003020,0.,0.00779948,-0.00212782,0.,-0.00048360,0.00048489,
 0.,-0.04625296,-0.00660538,0.,-0.00182537,0.00118294,0.,0.02929706,-0.
 09484737,-0.00000001,0.02826498,0.00043929,0.,0.06032393,0.75622399,0.
 ,0.,0.00000835,0.,0.,0.00002468,0.,0.,-0.00007022,0.,0.,0.00035394,0.,
 0.,-0.00000354,0.,0.,-0.00007775,0.,0.,-0.00008956,0.,0.,-0.00158207,0
 .,0.,0.00001894,0.,0.,0.00035995,0.,0.,0.00020012,0.,0.,0.01096571,0.,
 0.,-0.00022994,0.,0.,0.00435444,0.,0.,-0.00577403,0.00000003,-0.000000
 01,-0.05979438,0.,0.,0.00319002,0.,0.00000050,0.13195137,-0.00004270,-
 0.00000089,0.,0.00000086,-0.00000155,0.,-0.00000292,-0.00000392,0.,0.0
 0004321,-0.00003091,0.,-0.00000207,0.00000495,0.,-0.00005047,0.0000397
 9,0.,-0.00000332,-0.00000639,0.,0.00007272,-0.00003607,0.,0.00000568,0
 .00000854,0.,-0.00004482,-0.00003263,0.,-0.00004473,-0.00005220,0.,0.0
 0003227,-0.00048467,0.,0.00026534,-0.00011414,0.,0.00148948,0.00179793
 ,0.,-0.00007293,-0.00132809,0.,-0.01188893,0.02829909,0.00000002,-0.00
 495877,-0.00049428,0.,-0.11351953,0.10987005,0.00000011,0.11940739,0.0
 0004431,-0.00000741,0.,-0.00000152,0.00000104,0.,0.00000477,0.00000419
 ,0.,-0.00002956,0.00004658,0.,0.00000379,-0.00000683,0.,0.00002623,-0.
 00006462,0.,-0.00000018,0.00000182,0.,0.00001480,0.00008474,0.,0.00000
 854,-0.00000711,0.,0.00003764,-0.00013737,0.,0.00000047,-0.00000386,0.
 ,0.00002878,0.00048858,0.,-0.00011466,-0.00015609,0.,-0.00141142,0.000
 90948,0.,0.00048168,0.00039230,0.,-0.00125740,0.00032775,0.,-0.0004848
 3,0.00067847,0.,0.10865153,-0.26461541,-0.00000020,-0.11822526,0.28502
 735,0.,0.,-0.00000300,0.,0.,0.00000172,0.,0.,0.00000157,0.,0.,-0.00000
 307,0.,0.,0.00000128,0.,0.,-0.00001163,0.,0.,0.00000314,0.,0.,0.000018
 93,0.,0.,0.00000477,0.,0.,-0.00000995,0.,0.,0.00000717,0.,0.,-0.000217
 49,0.,0.,0.00011843,0.,0.,-0.00188026,0.,0.,0.00023162,-0.00000002,0.,
 0.00314541,0.,0.,0.00397441,0.00000012,-0.00000020,-0.04015914,-0.0000
 0011,0.00000023,0.02586010,0.00013425,0.00050893,0.,0.00001488,-0.0000
 0837,0.,-0.00003026,-0.00001505,0.,-0.00087226,-0.00067868,0.,-0.00002
 668,0.00002890,0.,0.00147508,0.00169817,0.,0.00001828,-0.00001353,0.,-
 0.00316142,-0.00185715,0.,-0.00005047,0.00002621,0.,0.00423743,0.00435
 243,0.,0.00006186,-0.00002344,0.,-0.00913047,-0.00585947,0.,-0.0000592
 7,0.00005696,0.,0.00941357,0.01376292,0.,0.00014427,-0.00049382,0.,-0.
 04976818,-0.04532274,-0.00000001,0.00149485,-0.00132052,0.,-0.19241458
 ,-0.15279278,-0.00000016,0.00981550,0.01445159,0.,0.65492371,0.0005261
 5,0.00042426,0.,0.00000247,-0.00000766,0.,0.00001392,0.00002324,0.,-0.
 00111823,-0.00021758,0.,0.00001973,-0.00004133,0.,0.00169794,0.0010700
 6,0.,0.00001994,-0.00001695,0.,-0.00307149,-0.00091724,0.,0.00003980,-
 0.00006462,0.,0.00464155,0.00304395,0.,0.00005860,-0.00003063,0.,-0.00
 810612,-0.00206599,0.,-0.00003052,-0.00013820,0.,0.01482822,0.00909061
 ,0.,0.00000328,0.00029738,0.,-0.03014158,-0.00629840,0.,0.00178551,0.0
 0090492,0.,-0.14863611,-0.37072794,-0.00000026,-0.01519341,-0.02224954
 ,-0.00000003,0.06370366,0.75787252,0.,0.,-0.00000046,0.,0.,-0.00000043
 ,0.,0.,-0.00000322,0.,0.,0.00001487,0.,0.,-0.00000089,0.,0.,0.00003261
 ,0.,0.,-0.00000510,0.,0.,-0.00007775,0.,0.,-0.00001163,0.,0.,-0.000233
 75,0.,0.,0.00003603,0.,0.,0.00031651,0.,0.,-0.00001125,0.,0.,0.0034989
 1,0.,0.,-0.00008001,0.,0.,0.00476697,0.,0.,-0.00183859,-0.00000015,-0.
 00000025,-0.05449794,-0.00000001,-0.00000002,0.00522634,0.,0.00000047,
 0.13034837,0.00000173,0.00000644,0.,0.00000020,-0.00000015,0.,-0.00000
 019,-0.00000016,0.,-0.00000934,-0.00000753,0.,-0.00000052,0.00000027,0
 .,0.00001828,0.00001994,0.,0.00000018,0.00000025,0.,-0.00002999,-0.000
 01856,0.,-0.00000332,-0.00000017,0.,0.00006644,0.00005875,0.,0.0000059
 8,0.00000604,0.,-0.00008591,0.00003616,0.,-0.00004418,-0.00000001,0.,0
 .00015679,-0.00001161,0.,-0.00014441,0.00014519,0.,0.00100385,-0.00175
 992,0.,-0.00006409,0.00048244,0.,0.00987612,-0.01549156,-0.00000001,-0
 .00138107,-0.00286917,0.,-0.11260370,0.10994667,0.00000011,0.11798205,
 0.00000108,-0.00000411,0.,-0.00000046,0.00000108,0.,0.00000015,0.00000
 027,0.,0.00000771,0.00000570,0.,-0.00000135,0.00000082,0.,-0.00001353,
 -0.00001696,0.,0.00000025,0.00000315,0.,0.00003703,0.00000527,0.,-0.00
 000639,0.00000182,0.,-0.00004128,-0.00003160,0.,0.00000640,0.00001040,
 0.,0.00005212,0.00002973,0.,-0.00005283,-0.00000299,0.,-0.00053879,0.0
 0029440,0.,0.00014627,0.00023859,0.,0.00232432,0.00118514,0.,-0.001325
 76,0.00037819,0.,0.01433633,-0.02182791,-0.00000002,-0.00283694,-0.002
 84650,-0.00000001,0.10838969,-0.26643025,-0.00000020,-0.11800531,0.286
 47080,0.,0.,-0.00000289,0.,0.,0.00000220,0.,0.,-0.00000257,0.,0.,0.000
 02227,0.,0.,0.00000147,0.,0.,-0.00000510,0.,0.,-0.00000925,0.,0.,-0.00
 008956,0.,0.,0.00000314,0.,0.,0.00003837,0.,0.,0.00001668,0.,0.,0.0002
 0614,0.,0.,0.00000654,0.,0.,-0.00010096,0.,0.,0.00036885,0.,0.,-0.0059
 1459,0.,0.,0.00025112,0.,-0.00000003,0.00529898,0.,0.,0.00895080,0.000
 00014,-0.00000020,-0.03923288,-0.00000011,0.00000024,0.02493368,0.0000
 0355,-0.00031944,0.,-0.00001277,0.00000556,0.,0.00002977,0.00001581,0.
 ,0.00045590,0.00049171,0.,0.00002543,-0.00003235,0.,-0.00087224,-0.001
 11835,0.,-0.00000934,0.00000771,0.,0.00185357,0.00117758,0.,0.00004321
 ,-0.00002955,0.,-0.00279055,-0.00262383,0.,-0.00002130,0.00001968,0.,0
 .00521217,0.00258721,0.,0.00008727,-0.00001123,0.,-0.00793958,-0.00654
 235,0.,-0.00005824,0.00000672,0.,0.01658789,0.00645967,0.,0.00004747,-
 0.00001205,0.,-0.04648789,-0.02541483,0.00000001,0.00100904,0.00234993
 ,0.,-0.26468493,0.02579569,0.00000002,-0.01150161,-0.00156984,-0.00000
 003,0.65172797,-0.00031371,-0.00013762,0.,0.00000321,0.00000212,0.,-0.
 00001826,-0.00001969,0.,0.00049167,-0.00004683,0.,-0.00001929,0.000034
 83,0.,-0.00067858,-0.00021750,0.,-0.00000753,0.00000570,0.,0.00106443,
 0.00009388,0.,-0.00003092,0.00004658,0.,-0.00159226,-0.00069751,0.,-0.
 00001573,0.00000489,0.,0.00238826,0.00017164,0.,-0.00003613,0.00007529
 ,0.,-0.00516103,-0.00132598,0.,0.00004125,0.00002077,0.,0.00608776,-0.
 00283418,0.,-0.00047848,0.00047528,0.,-0.04368784,-0.00503577,0.,-0.00
 194310,0.00112461,0.,0.02830268,-0.09569318,0.,0.02833279,0.00011298,-
 0.00000001,0.08154705,0.78742398,0.,0.,0.00000086,0.,0.,-0.00000569,0.
 ,0.,0.00001410,0.,0.,-0.00007874,0.,0.,-0.00000025,0.,0.,0.00001487,0.
 ,0.,0.00002227,0.,0.,0.00035394,0.,0.,-0.00000307,0.,0.,-0.00008409,0.
 ,0.,-0.00008964,0.,0.,-0.00162830,0.,0.,0.00002042,0.,0.,0.00033902,0.
 ,0.,0.00021614,-0.00000001,-0.00000001,0.01150445,0.,0.,-0.00024233,0.
 ,0.00000001,0.00424610,0.,0.,-0.00602903,-0.00000002,0.,-0.06213710,0.
 00000001,0.,0.00316163,-0.00000012,-0.00000078,0.13319410,-0.00002559,
 -0.00000060,0.,0.00000064,-0.00000050,0.,-0.00000213,-0.00000214,0.,0.
 00002543,-0.00001928,0.,-0.00000187,0.00000333,0.,-0.00002668,0.000019
 72,0.,-0.00000052,-0.00000135,0.,0.00002798,-0.00002724,0.,-0.00000207
 ,0.00000379,0.,-0.00003552,0.00003363,0.,-0.00000360,-0.00000557,0.,0.
 00006170,-0.00002866,0.,0.00000605,0.00000777,0.,-0.00003076,-0.000037
 10,0.,-0.00004500,-0.00005109,0.,0.00000819,-0.00049198,0.,0.00026874,
 -0.00011886,0.,0.00152599,0.00184720,0.,-0.00006094,-0.00135943,0.,-0.
 01214943,0.02853300,-0.00000002,-0.00509287,-0.00055121,0.,-0.11098197
 ,0.10943284,-0.00000015,0.11668388,0.00003925,-0.00000252,0.,-0.000001
 41,0.00000053,0.,0.00000399,0.00000333,0.,-0.00003236,0.00003483,0.,0.
 00000333,-0.00000572,0.,0.00002891,-0.00004133,0.,0.00000027,0.0000008
 2,0.,-0.00001761,0.00005399,0.,0.00000495,-0.00000683,0.,0.00001934,-0
 .00006628,0.,0.00000017,0.00000150,0.,0.00001122,0.00008880,0.,0.00000
 878,-0.00000746,0.,0.00004398,-0.00014031,0.,0.00000329,-0.00000124,0.
 ,-0.00000473,0.00052696,0.,-0.00012850,-0.00015947,0.,-0.00140740,0.00
 090619,0.,0.00051278,0.00043961,0.,-0.00126414,-0.00028134,0.,-0.00039
 064,0.00075784,0.,0.10797036,-0.26847690,0.00000028,-0.11617319,0.2892
 8555,0.,0.,-0.00000192,0.,0.,0.00000097,0.,0.,0.00000053,0.,0.,-0.0000
 0025,0.,0.,0.00000092,0.,0.,-0.00000089,0.,0.,0.00000147,0.,0.,-0.0000
 0354,0.,0.,0.00000128,0.,0.,-0.00000995,0.,0.,0.00000351,0.,0.,0.00001
 413,0.,0.,0.00000476,0.,0.,-0.00001335,0.,0.,0.00001015,0.,0.,-0.00019
 454,0.,0.,0.00010204,0.,0.,-0.00161366,0.,0.,0.00020336,0.00000004,0.0
 0000001,0.00318176,0.,0.,0.00359721,-0.00000018,0.00000028,-0.04174698
 ,0.00000014,-0.00000033,0.02706339,-0.00017491,0.00010983,0.,0.0000092
 4,-0.00000124,0.,-0.00002810,-0.00001996,0.,0.00000355,-0.00031372,0.,
 -0.00002560,0.00003925,0.,0.00013427,0.00052622,0.,0.00000173,0.000001
 08,0.,-0.00048953,-0.00062134,0.,-0.00004271,0.00004430,0.,0.00073192,
 0.00107964,0.,0.00000805,0.00000225,0.,-0.00158942,-0.00129744,0.,-0.0
 0006575,0.00005638,0.,0.00188480,0.00260131,0.,0.00003141,0.00000160,0
 .,-0.00489259,-0.00418858,0.,-0.00009529,0.00011580,0.,0.00305575,0.00
 907754,0.,0.00008873,-0.00043181,0.,-0.03891669,-0.04060012,0.00000003
 ,0.00149080,-0.00100831,0.,-0.22914535,-0.19279654,0.00000028,0.009900
 17,0.01404989,0.,0.70729833,0.00010983,0.00014890,0.,0.00000300,-0.000
 00272,0.,-0.00000273,0.00000207,0.,-0.00031942,-0.00013762,0.,-0.00000
 059,-0.00000252,0.,0.00050888,0.00042423,0.,0.00000644,-0.00000411,0.,
 -0.00095523,-0.00041021,0.,-0.00000089,-0.00000741,0.,0.00138744,0.001
 04586,0.,0.00001533,-0.00000834,0.,-0.00246062,-0.00098354,0.,0.000004
 89,-0.00002067,0.,0.00373404,0.00264644,0.,0.00004639,-0.00001803,0.,-
 0.00658733,-0.00186599,0.,-0.00007665,-0.00008030,0.,0.01250994,0.0082
 1139,0.,0.00000990,0.00035996,0.,-0.02709511,-0.00484838,0.,0.00125177
 ,0.00122455,0.,-0.17669914,-0.39878828,0.00000046,-0.01763832,-0.02158
 013,0.00000005,0.08549171,0.75460307,0.,0.,0.00000360,0.,0.,-0.0000017
 0,0.,0.,-0.00000104,0.,0.,0.00000086,0.,0.,-0.00000192,0.,0.,-0.000000
 46,0.,0.,-0.00000289,0.,0.,0.00000835,0.,0.,-0.00000300,0.,0.,0.000030
 77,0.,0.,-0.00000614,0.,0.,-0.00002482,0.,0.,-0.00001469,0.,0.,-0.0001
 5436,0.,0.,0.00001628,0.,0.,-0.00002843,0.,0.,-0.00002006,0.,0.,0.0027
 7049,0.,0.,0.00006733,0.00000001,0.,0.00642175,0.,0.,-0.00147104,0.000
 00027,0.00000048,-0.05010581,0.00000002,0.00000003,0.00553216,-0.00000
 014,-0.00000089,0.10123295,0.00000924,0.00000300,0.,-0.00000019,-0.000
 00015,0.,0.00000097,0.00000061,0.,-0.00001277,0.00000321,0.,0.00000064
 ,-0.00000141,0.,0.00001488,0.00000247,0.,0.00000020,-0.00000046,0.,-0.
 00002162,-0.00000023,0.,0.00000086,-0.00000152,0.,0.00002804,0.0000130
 7,0.,0.00000027,-0.00000042,0.,-0.00004485,-0.00000756,0.,-0.00000085,
 -0.00000297,0.,0.00007601,0.00005082,0.,0.00000580,0.00000490,0.,-0.00
 009316,0.00006009,0.,-0.00004089,-0.00000073,0.,0.00011117,-0.00009039
 ,0.,-0.00014844,0.00015689,0.,0.00121180,-0.00165043,0.,0.00005783,0.0
 0055711,0.,0.01051683,-0.01621344,0.00000002,-0.00110912,-0.00304647,0
 .,-0.10718331,0.11023244,-0.00000015,0.10370898,-0.00000125,-0.0000027
 2,0.,-0.00000015,0.00000049,0.,-0.00000009,-0.00000002,0.,0.00000556,0
 .00000212,0.,-0.00000050,0.00000053,0.,-0.00000837,-0.00000766,0.,-0.0
 0000015,0.00000108,0.,0.00001847,0.00000707,0.,-0.00000155,0.00000104,
 0.,-0.00002473,-0.00001931,0.,0.00000046,0.00000298,0.,0.00005446,0.00
 001012,0.,-0.00000591,0.00000203,0.,-0.00005582,-0.00004062,0.,0.00000
 567,0.00000927,0.,0.00009774,0.00004484,0.,-0.00004785,-0.00000310,0.,
 -0.00047249,0.00025689,0.,0.00015129,0.00022130,0.,0.00249726,0.001475
 00,-0.00000001,-0.00130442,0.00026771,0.,0.01402139,-0.02087830,0.0000
 0003,-0.00336019,-0.00257491,0.00000002,0.10596283,-0.28378188,0.00000
 034,-0.11466864,0.30378682,0.,0.,-0.00000170,0.,0.,0.00000047,0.,0.,0.
 00000153,0.,0.,-0.00000569,0.,0.,0.00000097,0.,0.,-0.00000043,0.,0.,0.
 00000220,0.,0.,0.00002468,0.,0.,0.00000172,0.,0.,-0.00000663,0.,0.,-0.
 00001054,0.,0.,-0.00010135,0.,0.,0.00000343,0.,0.,0.00004049,0.,0.,0.0
 0001243,0.,0.,0.00030466,0.,0.,0.00000284,0.,0.,-0.00004216,0.,0.,0.00
 035897,0.,0.,-0.00735520,0.,0.,0.00026178,-0.00000002,0.00000004,0.004
 94757,0.,0.00000002,0.01069884,-0.00000014,0.00000034,-0.03309025,0.00
 000015,-0.00000038,0.02153129,-0.00002811,-0.00000273,0.,0.00000097,-0
 .00000009,0.,-0.00000294,-0.00000212,0.,0.00002978,-0.00001826,0.,-0.0
 0000213,0.00000399,0.,-0.00003026,0.00001392,0.,-0.00000019,0.00000015
 ,0.,0.00003578,-0.00002196,0.,-0.00000292,0.00000477,0.,-0.00004541,0.
 00001134,0.,-0.00000053,-0.00000014,0.,0.00005734,-0.00003177,0.,-0.00
 000292,0.00000635,0.,-0.00012613,0.00001721,0.,0.00000262,-0.00000203,
 0.,0.00012420,-0.00023308,0.,0.00000506,0.00001528,0.,-0.00070710,0.00
 035377,0.,-0.00000858,-0.00007571,0.,0.00092285,-0.00306811,0.,0.00030
 096,0.00009353,0.,-0.01309432,0.00530091,0.,0.00105930,-0.00023408,0.,
 -0.34198952,0.01652404,0.,-0.00708833,-0.00286301,0.,0.36059056,-0.000
 01995,0.00000207,0.,0.00000061,-0.00000002,0.,-0.00000212,-0.00000186,
 0.,0.00001581,-0.00001969,0.,-0.00000214,0.00000333,0.,-0.00001505,0.0
 0002324,0.,-0.00000016,0.00000027,0.,0.00000726,-0.00003380,0.,-0.0000
 0392,0.00000419,0.,-0.00001426,0.00004070,0.,0.00000045,0.00000058,0.,
 -0.00001334,-0.00008129,0.,-0.00000596,0.00000595,0.,-0.00007987,0.000
 10851,0.,0.00000256,-0.00000262,0.,-0.00013589,-0.00045555,0.,-0.00000
 749,0.00001726,0.,-0.00118443,0.00085722,0.,0.00009013,-0.00001305,0.,
 -0.00103457,-0.00417271,0.00000002,-0.00042749,0.00017187,0.,-0.028083
 10,0.00455919,0.,-0.00001458,0.00124451,-0.00000001,0.02211944,-0.0561
 2634,0.00000003,0.02460024,0.00121923,0.,-0.01579218,0.05264881,0.,0.,
 -0.00000104,0.,0.,0.00000153,0.,0.,-0.00000238,0.,0.,0.00001410,0.,0.,
 0.00000053,0.,0.,-0.00000322,0.,0.,-0.00000257,0.,0.,-0.00007022,0.,0.
 ,0.00000157,0.,0.,0.00000950,0.,0.,0.00002330,0.,0.,0.00030801,0.,0.,0
 .00000129,0.,0.,-0.00007488,0.,0.,-0.00006973,0.,0.,-0.00144946,0.,0.,
 0.00002202,0.,0.,0.00019133,0.,0.,0.00013819,0.,0.00000002,0.01164207,
 0.,0.,-0.00029205,0.00000004,0.,0.00411555,0.,-0.00000001,-0.00683142,
 -0.00000002,0.00000004,-0.03115792,-0.00000003,0.,0.00242008,0.,-0.000
 00004,0.02106581\\-0.00001066,-0.00000491,0.,0.00001513,0.00000228,0.,
 0.00000742,0.00000826,0.,0.00001326,-0.00001582,0.,-0.00000083,0.00000
 946,0.,-0.00001673,0.00004086,0.,0.00000618,-0.00001517,0.,-0.00000069
 ,-0.00003725,0.,-0.00000754,0.00001236,0.,-0.00000290,0.00003532,0.,0.
 00000747,-0.00001291,0.,-0.00000329,-0.00003502,0.,-0.00000778,0.00001
 185,0.,0.00000271,0.00003541,0.00000002,0.00000839,-0.00001209,0.,0.00
 000233,-0.00003534,0.,-0.00000687,0.00001272,-0.00000001,0.00000020,0.
 00003821,-0.00000002,0.00000808,-0.00001274,-0.00000002,0.00001583,-0.
 00004128,0.,-0.00000557,0.00001511,0.00000002,-0.00001280,0.00001734,0
 .,0.00000072,-0.00000988,0.00000002,0.00000924,0.00000414,-0.00000002,
 -0.00001426,-0.00000222,0.,-0.00000706,-0.00000868,0.\\\@


 One man practicing sportsmanship is far better than 50 preaching it.
 -- Knute K. Rockne
 Job cpu time:       0 days  0 hours 33 minutes  6.3 seconds.
 Elapsed time:       0 days  0 hours  1 minutes 23.4 seconds.
 File lengths (MBytes):  RWF=    163 Int=      0 D2E=      0 Chk=      6 Scr=      1
 Normal termination of Gaussian 16 at Thu Mar  5 11:35:40 2020.
