 Entering Gaussian System, Link 0=g16
 Input=anthracene_opt.gjf
 Output=anthracene_opt.log
 Initial command:
 /home/qingchun/software/g16A_modified_by_qingchun/g16/l1.exe "/scratch/qingchun/gaussian/Gau-28221.inp" -scrdir="/scratch/qingchun/gaussian/"
 Entering Link 1 = /home/qingchun/software/g16A_modified_by_qingchun/g16/l1.exe PID=     28222.
  
 Copyright (c) 1988,1990,1992,1993,1995,1998,2003,2009,2016,
            Gaussian, Inc.  All Rights Reserved.
  
 This is part of the Gaussian(R) 16 program.  It is based on
 the Gaussian(R) 09 system (copyright 2009, Gaussian, Inc.),
 the Gaussian(R) 03 system (copyright 2003, Gaussian, Inc.),
 the Gaussian(R) 98 system (copyright 1998, Gaussian, Inc.),
 the Gaussian(R) 94 system (copyright 1995, Gaussian, Inc.),
 the Gaussian 92(TM) system (copyright 1992, Gaussian, Inc.),
 the Gaussian 90(TM) system (copyright 1990, Gaussian, Inc.),
 the Gaussian 88(TM) system (copyright 1988, Gaussian, Inc.),
 the Gaussian 86(TM) system (copyright 1986, Carnegie Mellon
 University), and the Gaussian 82(TM) system (copyright 1983,
 Carnegie Mellon University). Gaussian is a federally registered
 trademark of Gaussian, Inc.
  
 This software contains proprietary and confidential information,
 including trade secrets, belonging to Gaussian, Inc.
  
 This software is provided under written license and may be
 used, copied, transmitted, or stored only in accord with that
 written license.
  
 The following legend is applicable only to US Government
 contracts under FAR:
  
                    RESTRICTED RIGHTS LEGEND
  
 Use, reproduction and disclosure by the US Government is
 subject to restrictions as set forth in subparagraphs (a)
 and (c) of the Commercial Computer Software - Restricted
 Rights clause in FAR 52.227-19.
  
 Gaussian, Inc.
 340 Quinnipiac St., Bldg. 40, Wallingford CT 06492
  
  
 ---------------------------------------------------------------
 Warning -- This program may not be used in any manner that
 competes with the business of Gaussian, Inc. or will provide
 assistance to any competitor of Gaussian, Inc.  The licensee
 of this program is prohibited from giving any competitor of
 Gaussian, Inc. access to this program.  By using this program,
 the user acknowledges that Gaussian, Inc. is engaged in the
 business of creating and licensing software in the field of
 computational chemistry and represents and warrants to the
 licensee that it is not a competitor of Gaussian, Inc. and that
 it will not use this program in any manner prohibited above.
 ---------------------------------------------------------------
  

 Cite this work as:
 Gaussian 16, Revision A.03,
 M. J. Frisch, G. W. Trucks, H. B. Schlegel, G. E. Scuseria, 
 M. A. Robb, J. R. Cheeseman, G. Scalmani, V. Barone, 
 G. A. Petersson, H. Nakatsuji, X. Li, M. Caricato, A. V. Marenich, 
 J. Bloino, B. G. Janesko, R. Gomperts, B. Mennucci, H. P. Hratchian, 
 J. V. Ortiz, A. F. Izmaylov, J. L. Sonnenberg, D. Williams-Young, 
 F. Ding, F. Lipparini, F. Egidi, J. Goings, B. Peng, A. Petrone, 
 T. Henderson, D. Ranasinghe, V. G. Zakrzewski, J. Gao, N. Rega, 
 G. Zheng, W. Liang, M. Hada, M. Ehara, K. Toyota, R. Fukuda, 
 J. Hasegawa, M. Ishida, T. Nakajima, Y. Honda, O. Kitao, H. Nakai, 
 T. Vreven, K. Throssell, J. A. Montgomery, Jr., J. E. Peralta, 
 F. Ogliaro, M. J. Bearpark, J. J. Heyd, E. N. Brothers, K. N. Kudin, 
 V. N. Staroverov, T. A. Keith, R. Kobayashi, J. Normand, 
 K. Raghavachari, A. P. Rendell, J. C. Burant, S. S. Iyengar, 
 J. Tomasi, M. Cossi, J. M. Millam, M. Klene, C. Adamo, R. Cammi, 
 J. W. Ochterski, R. L. Martin, K. Morokuma, O. Farkas, 
 J. B. Foresman, and D. J. Fox, Gaussian, Inc., Wallingford CT, 2016.
 
 ******************************************
 Gaussian 16:  ES64L-G16RevA.03 25-Dec-2016
                20-Jun-2020 
 ******************************************
 %nprocshared=4
 Will use up to    4 processors via shared memory.
 %mem=30GB
 %chk=anthracene_opt.chk
 ----------------------
 # opt freq b3lyp/6-31G
 ----------------------
 1/18=20,19=15,26=3,38=1/1,3;
 2/9=110,12=2,17=6,18=5,40=1/2;
 3/5=1,6=6,11=2,25=1,30=1,71=1,74=-5/1,2,3;
 4//1;
 5/5=2,38=5/2;
 6/7=2,8=2,9=2,10=2,28=1/1;
 7//1,2,3,16;
 1/18=20,19=15,26=3/3(2);
 2/9=110/2;
 99//99;
 2/9=110/2;
 3/5=1,6=6,11=2,25=1,30=1,71=1,74=-5/1,2,3;
 4/5=5,16=3,69=1/1;
 5/5=2,38=5/2;
 7//1,2,3,16;
 1/18=20,19=15,26=3/3(-5);
 2/9=110/2;
 6/7=2,8=2,9=2,10=2,19=2,28=1/1;
 99/9=1/99;
 -----
 6-31G
 -----
 Symbolic Z-matrix:
 Charge =  0 Multiplicity = 1
 C                    -6.04179  -2.8892   -0.00751 
 C                    -4.67717  -2.8892   -0.00751 
 C                    -3.94428  -1.65798  -0.00751 
 C                    -4.66828  -0.42623  -0.01303 
 C                    -6.10052  -0.46773  -0.01433 
 C                    -6.7643   -1.66002  -0.01096 
 C                    -2.54538  -1.63509  -0.00262 
 C                    -3.9679    0.78493  -0.01475 
 C                    -2.56896   0.80782  -0.00913 
 C                    -1.84499  -0.42389  -0.00171 
 C                    -0.41281  -0.38226   0.0054 
 H                     0.13306  -1.33779   0.012 
 C                     0.25093   0.81009   0.00645 
 C                    -0.47155   2.03921  -0.00173 
 C                    -1.8362    2.03906  -0.00909 
 H                    -1.98768  -2.58433   0.0017 
 H                    -6.60767  -3.83248  -0.00511 
 H                    -4.10785  -3.83094  -0.00441 
 H                    -6.64633   0.48782  -0.01893 
 H                    -7.8637   -1.69618  -0.01239 
 H                    -4.52604   1.73391  -0.01902 
 H                     1.35033   0.846     0.01261 
 H                     0.09453   2.98238  -0.00063 
 H                    -2.40574   2.98068  -0.01537 
 

 GradGradGradGradGradGradGradGradGradGradGradGradGradGradGradGradGradGrad
 Berny optimization.
 Initialization pass.
                           ----------------------------
                           !    Initial Parameters    !
                           ! (Angstroms and Degrees)  !
 --------------------------                            --------------------------
 ! Name  Definition              Value          Derivative Info.                !
 --------------------------------------------------------------------------------
 ! R1    R(1,2)                  1.3646         estimate D2E/DX2                !
 ! R2    R(1,6)                  1.4258         estimate D2E/DX2                !
 ! R3    R(1,17)                 1.1            estimate D2E/DX2                !
 ! R4    R(2,3)                  1.4328         estimate D2E/DX2                !
 ! R5    R(2,18)                 1.1005         estimate D2E/DX2                !
 ! R6    R(3,4)                  1.4288         estimate D2E/DX2                !
 ! R7    R(3,7)                  1.3991         estimate D2E/DX2                !
 ! R8    R(4,5)                  1.4328         estimate D2E/DX2                !
 ! R9    R(4,8)                  1.3991         estimate D2E/DX2                !
 ! R10   R(5,6)                  1.3646         estimate D2E/DX2                !
 ! R11   R(5,19)                 1.1005         estimate D2E/DX2                !
 ! R12   R(6,20)                 1.1            estimate D2E/DX2                !
 ! R13   R(7,10)                 1.3991         estimate D2E/DX2                !
 ! R14   R(7,16)                 1.101          estimate D2E/DX2                !
 ! R15   R(8,9)                  1.3991         estimate D2E/DX2                !
 ! R16   R(8,21)                 1.101          estimate D2E/DX2                !
 ! R17   R(9,10)                 1.4287         estimate D2E/DX2                !
 ! R18   R(9,15)                 1.4328         estimate D2E/DX2                !
 ! R19   R(10,11)                1.4328         estimate D2E/DX2                !
 ! R20   R(11,12)                1.1005         estimate D2E/DX2                !
 ! R21   R(11,13)                1.3646         estimate D2E/DX2                !
 ! R22   R(13,14)                1.4258         estimate D2E/DX2                !
 ! R23   R(13,22)                1.1            estimate D2E/DX2                !
 ! R24   R(14,15)                1.3647         estimate D2E/DX2                !
 ! R25   R(14,23)                1.1            estimate D2E/DX2                !
 ! R26   R(15,24)                1.1005         estimate D2E/DX2                !
 ! A1    A(2,1,6)              120.4466         estimate D2E/DX2                !
 ! A2    A(2,1,17)             120.9594         estimate D2E/DX2                !
 ! A3    A(6,1,17)             118.5939         estimate D2E/DX2                !
 ! A4    A(1,2,3)              120.7635         estimate D2E/DX2                !
 ! A5    A(1,2,18)             121.155          estimate D2E/DX2                !
 ! A6    A(3,2,18)             118.0813         estimate D2E/DX2                !
 ! A7    A(2,3,4)              118.7901         estimate D2E/DX2                !
 ! A8    A(2,3,7)              121.7006         estimate D2E/DX2                !
 ! A9    A(4,3,7)              119.5092         estimate D2E/DX2                !
 ! A10   A(3,4,5)              118.7868         estimate D2E/DX2                !
 ! A11   A(3,4,8)              119.5145         estimate D2E/DX2                !
 ! A12   A(5,4,8)              121.6986         estimate D2E/DX2                !
 ! A13   A(4,5,6)              120.765          estimate D2E/DX2                !
 ! A14   A(4,5,19)             118.0759         estimate D2E/DX2                !
 ! A15   A(6,5,19)             121.1591         estimate D2E/DX2                !
 ! A16   A(1,6,5)              120.4476         estimate D2E/DX2                !
 ! A17   A(1,6,20)             118.5627         estimate D2E/DX2                !
 ! A18   A(5,6,20)             120.9896         estimate D2E/DX2                !
 ! A19   A(3,7,10)             120.9763         estimate D2E/DX2                !
 ! A20   A(3,7,16)             119.4985         estimate D2E/DX2                !
 ! A21   A(10,7,16)            119.5252         estimate D2E/DX2                !
 ! A22   A(4,8,9)              120.9759         estimate D2E/DX2                !
 ! A23   A(4,8,21)             119.499          estimate D2E/DX2                !
 ! A24   A(9,8,21)             119.5251         estimate D2E/DX2                !
 ! A25   A(8,9,10)             119.5096         estimate D2E/DX2                !
 ! A26   A(8,9,15)             121.6954         estimate D2E/DX2                !
 ! A27   A(10,9,15)            118.7949         estimate D2E/DX2                !
 ! A28   A(7,10,9)             119.5142         estimate D2E/DX2                !
 ! A29   A(7,10,11)            121.7035         estimate D2E/DX2                !
 ! A30   A(9,10,11)            118.7822         estimate D2E/DX2                !
 ! A31   A(10,11,12)           118.0746         estimate D2E/DX2                !
 ! A32   A(10,11,13)           120.7675         estimate D2E/DX2                !
 ! A33   A(12,11,13)           121.1578         estimate D2E/DX2                !
 ! A34   A(11,13,14)           120.4489         estimate D2E/DX2                !
 ! A35   A(11,13,22)           120.9732         estimate D2E/DX2                !
 ! A36   A(14,13,22)           118.5779         estimate D2E/DX2                !
 ! A37   A(13,14,15)           120.4423         estimate D2E/DX2                !
 ! A38   A(13,14,23)           118.5802         estimate D2E/DX2                !
 ! A39   A(15,14,23)           120.9774         estimate D2E/DX2                !
 ! A40   A(9,15,14)            120.7641         estimate D2E/DX2                !
 ! A41   A(9,15,24)            118.0731         estimate D2E/DX2                !
 ! A42   A(14,15,24)           121.1628         estimate D2E/DX2                !
 ! D1    D(6,1,2,3)              0.1607         estimate D2E/DX2                !
 ! D2    D(6,1,2,18)           179.9717         estimate D2E/DX2                !
 ! D3    D(17,1,2,3)          -179.854          estimate D2E/DX2                !
 ! D4    D(17,1,2,18)           -0.0429         estimate D2E/DX2                !
 ! D5    D(2,1,6,5)              0.0013         estimate D2E/DX2                !
 ! D6    D(2,1,6,20)           179.9091         estimate D2E/DX2                !
 ! D7    D(17,1,6,5)          -179.9844         estimate D2E/DX2                !
 ! D8    D(17,1,6,20)           -0.0766         estimate D2E/DX2                !
 ! D9    D(1,2,3,4)             -0.2525         estimate D2E/DX2                !
 ! D10   D(1,2,3,7)            179.7643         estimate D2E/DX2                !
 ! D11   D(18,2,3,4)           179.9308         estimate D2E/DX2                !
 ! D12   D(18,2,3,7)            -0.0524         estimate D2E/DX2                !
 ! D13   D(2,3,4,5)              0.1839         estimate D2E/DX2                !
 ! D14   D(2,3,4,8)           -179.9227         estimate D2E/DX2                !
 ! D15   D(7,3,4,5)           -179.8326         estimate D2E/DX2                !
 ! D16   D(7,3,4,8)              0.0609         estimate D2E/DX2                !
 ! D17   D(2,3,7,10)          -179.9531         estimate D2E/DX2                !
 ! D18   D(2,3,7,16)            -0.021          estimate D2E/DX2                !
 ! D19   D(4,3,7,10)             0.0639         estimate D2E/DX2                !
 ! D20   D(4,3,7,16)           179.996          estimate D2E/DX2                !
 ! D21   D(3,4,5,6)             -0.0283         estimate D2E/DX2                !
 ! D22   D(3,4,5,19)          -179.98           estimate D2E/DX2                !
 ! D23   D(8,4,5,6)           -179.9193         estimate D2E/DX2                !
 ! D24   D(8,4,5,19)             0.129          estimate D2E/DX2                !
 ! D25   D(3,4,8,9)             -0.0966         estimate D2E/DX2                !
 ! D26   D(3,4,8,21)           179.9991         estimate D2E/DX2                !
 ! D27   D(5,4,8,9)            179.7937         estimate D2E/DX2                !
 ! D28   D(5,4,8,21)            -0.1107         estimate D2E/DX2                !
 ! D29   D(4,5,6,1)             -0.0673         estimate D2E/DX2                !
 ! D30   D(4,5,6,20)          -179.9728         estimate D2E/DX2                !
 ! D31   D(19,5,6,1)           179.8829         estimate D2E/DX2                !
 ! D32   D(19,5,6,20)           -0.0226         estimate D2E/DX2                !
 ! D33   D(3,7,10,9)            -0.1515         estimate D2E/DX2                !
 ! D34   D(3,7,10,11)          179.9003         estimate D2E/DX2                !
 ! D35   D(16,7,10,9)          179.9164         estimate D2E/DX2                !
 ! D36   D(16,7,10,11)          -0.0317         estimate D2E/DX2                !
 ! D37   D(4,8,9,10)             0.0089         estimate D2E/DX2                !
 ! D38   D(4,8,9,15)          -179.9202         estimate D2E/DX2                !
 ! D39   D(21,8,9,10)          179.9133         estimate D2E/DX2                !
 ! D40   D(21,8,9,15)           -0.0159         estimate D2E/DX2                !
 ! D41   D(8,9,10,7)             0.115          estimate D2E/DX2                !
 ! D42   D(8,9,10,11)         -179.9353         estimate D2E/DX2                !
 ! D43   D(15,9,10,7)         -179.9538         estimate D2E/DX2                !
 ! D44   D(15,9,10,11)          -0.0041         estimate D2E/DX2                !
 ! D45   D(8,9,15,14)          179.9107         estimate D2E/DX2                !
 ! D46   D(8,9,15,24)           -0.1009         estimate D2E/DX2                !
 ! D47   D(10,9,15,14)          -0.0189         estimate D2E/DX2                !
 ! D48   D(10,9,15,24)         179.9695         estimate D2E/DX2                !
 ! D49   D(7,10,11,12)          -0.106          estimate D2E/DX2                !
 ! D50   D(7,10,11,13)        -179.9865         estimate D2E/DX2                !
 ! D51   D(9,10,11,12)         179.9455         estimate D2E/DX2                !
 ! D52   D(9,10,11,13)           0.065          estimate D2E/DX2                !
 ! D53   D(10,11,13,14)         -0.1018         estimate D2E/DX2                !
 ! D54   D(10,11,13,22)        179.9569         estimate D2E/DX2                !
 ! D55   D(12,11,13,14)       -179.9786         estimate D2E/DX2                !
 ! D56   D(12,11,13,22)          0.0801         estimate D2E/DX2                !
 ! D57   D(11,13,14,15)          0.078          estimate D2E/DX2                !
 ! D58   D(11,13,14,23)        179.9999         estimate D2E/DX2                !
 ! D59   D(22,13,14,15)       -179.9793         estimate D2E/DX2                !
 ! D60   D(22,13,14,23)         -0.0574         estimate D2E/DX2                !
 ! D61   D(13,14,15,9)          -0.0166         estimate D2E/DX2                !
 ! D62   D(13,14,15,24)        179.9954         estimate D2E/DX2                !
 ! D63   D(23,14,15,9)        -179.9366         estimate D2E/DX2                !
 ! D64   D(23,14,15,24)          0.0754         estimate D2E/DX2                !
 --------------------------------------------------------------------------------
 Trust Radius=3.00D-01 FncErr=1.00D-07 GrdErr=1.00D-06 EigMax=2.50D+02 EigMin=1.00D-04
 Number of steps in this run=    142 maximum allowed number of steps=    144.
 GradGradGradGradGradGradGradGradGradGradGradGradGradGradGradGradGradGrad

                          Input orientation:                          
 ---------------------------------------------------------------------
 Center     Atomic      Atomic             Coordinates (Angstroms)
 Number     Number       Type             X           Y           Z
 ---------------------------------------------------------------------
      1          6           0       -6.041795   -2.889203   -0.007512
      2          6           0       -4.677172   -2.889203   -0.007512
      3          6           0       -3.944281   -1.657982   -0.007512
      4          6           0       -4.668278   -0.426235   -0.013030
      5          6           0       -6.100518   -0.467726   -0.014330
      6          6           0       -6.764301   -1.660019   -0.010959
      7          6           0       -2.545380   -1.635093   -0.002616
      8          6           0       -3.967901    0.784932   -0.014751
      9          6           0       -2.568960    0.807816   -0.009126
     10          6           0       -1.844991   -0.423887   -0.001706
     11          6           0       -0.412809   -0.382263    0.005404
     12          1           0        0.133061   -1.337790    0.012005
     13          6           0        0.250928    0.810092    0.006446
     14          6           0       -0.471555    2.039207   -0.001726
     15          6           0       -1.836198    2.039062   -0.009093
     16          1           0       -1.987677   -2.584330    0.001703
     17          1           0       -6.607667   -3.832481   -0.005108
     18          1           0       -4.107846   -3.830937   -0.004406
     19          1           0       -6.646331    0.487820   -0.018934
     20          1           0       -7.863699   -1.696184   -0.012390
     21          1           0       -4.526040    1.733913   -0.019019
     22          1           0        1.350334    0.845996    0.012606
     23          1           0        0.094525    2.982384   -0.000631
     24          1           0       -2.405741    2.980679   -0.015365
 ---------------------------------------------------------------------
                    Distance matrix (angstroms):
                    1          2          3          4          5
     1  C    0.000000
     2  C    1.364623   0.000000
     3  C    2.432174   1.432841   0.000000
     4  C    2.820069   2.462990   1.428777   0.000000
     5  C    2.422199   2.808827   2.462948   1.432841   0.000000
     6  C    1.425805   2.422192   2.820023   2.432188   1.364618
     7  C    3.714530   2.473328   1.399097   2.442978   3.741910
     8  C    4.219047   3.741976   2.443039   1.399091   2.473299
     9  C    5.072330   4.255879   2.823415   2.435166   3.754855
    10  C    4.867338   3.754872   2.435168   2.823311   4.255772
    11  C    6.162013   4.946686   3.754853   4.255736   5.688385
    12  H    6.366797   5.054266   4.089942   4.887168   6.294062
    13  C    7.299544   6.162073   4.867377   5.072225   6.478743
    14  C    7.437529   6.478925   5.072383   4.867342   6.161988
    15  C    6.478800   5.688491   4.255837   3.754781   4.946558
    16  H    4.065576   2.706735   2.164834   3.441397   4.625552
    17  H    1.099996   2.148625   3.438325   3.919669   3.402773
    18  H    2.151054   1.100457   2.179105   3.450530   3.909224
    19  H    3.430726   3.909220   3.450460   2.179042   1.100455
    20  H    2.177763   3.402539   3.919607   3.438530   2.148935
    21  H    4.865269   4.625600   3.441443   2.164834   2.706699
    22  H    8.282251   7.091047   5.856898   6.151660   7.565830
    23  H    8.492939   7.566021   6.151829   5.856887   7.090980
    24  H    6.904815   6.294043   4.887161   4.089761   5.053996
                    6          7          8          9         10
     6  C    0.000000
     7  C    4.219003   0.000000
     8  C    3.714519   2.807175   0.000000
     9  C    4.867350   2.443031   1.399139   0.000000
    10  C    5.072250   1.399130   2.442982   1.428733   0.000000
    11  C    6.478764   2.473359   3.741848   2.462821   1.432804
    12  H    6.904923   2.694930   4.617852   3.450361   2.179013
    13  C    7.437418   3.714613   4.218957   2.819932   2.432210
    14  C    7.299521   4.219151   3.714540   2.432177   2.820134
    15  C    6.161932   3.741978   2.473263   1.432797   2.462976
    16  H    4.865249   1.100955   3.908131   3.441607   2.165152
    17  H    2.178109   4.618517   5.318737   6.151709   5.856757
    18  H    3.430697   2.695002   4.618002   4.887353   4.090050
    19  H    2.151091   4.617881   2.694862   4.089920   4.887164
    20  H    1.099994   5.318679   4.618786   5.856986   6.151723
    21  H    4.065544   3.908131   1.100955   2.165159   3.441573
    22  H    8.492819   4.618725   5.318656   3.919540   3.438446
    23  H    8.282240   5.318853   4.618690   3.438455   3.919746
    24  H    6.366564   4.617901   2.694745   2.178994   3.450463
                   11         12         13         14         15
    11  C    0.000000
    12  H    1.100477   0.000000
    13  C    1.364646   2.151121   0.000000
    14  C    2.422193   3.430723   1.425753   0.000000
    15  C    2.808747   3.909163   2.422128   1.364663   0.000000
    16  H    2.707272   2.459979   4.066138   4.865771   4.625885
    17  H    7.090866   7.187572   8.282146   8.492856   7.565841
    18  H    5.054379   4.919486   6.366960   6.905158   6.294227
    19  H    6.294000   7.020966   6.904831   6.366707   5.054090
    20  H    7.565875   8.004824   8.492876   8.282334   7.091040
    21  H    4.625740   5.580640   4.865544   4.066000   2.707114
    22  H    2.148801   2.500135   1.100009   2.177897   3.402626
    23  H    3.402686   4.320364   2.177927   1.100014   2.148865
    24  H    3.909167   5.009535   3.430716   2.151193   1.100482
                   16         17         18         19         20
    16  H    0.000000
    17  H    4.785628   0.000000
    18  H    2.459509   2.499822   0.000000
    19  H    5.580465   4.320496   5.009569   0.000000
    20  H    5.942780   2.478192   4.320147   2.500380   0.000000
    21  H    5.009086   5.942904   5.580560   2.459346   4.785977
    22  H    4.786395   9.231373   7.187887   8.004745   9.558332
    23  H    5.943389   9.558336   8.005078   7.187651   9.231601
    24  H    5.580716   8.004713   7.021068   4.919041   7.187653
                   21         22         23         24
    21  H    0.000000
    22  H    5.943161   0.000000
    23  H    4.786297   2.478182   0.000000
    24  H    2.459696   4.320388   2.500310   0.000000
 Stoichiometry    C14H10
 Framework group  C1[X(C14H10)]
 Deg. of freedom    66
 Full point group                 C1      NOp   1
 Largest Abelian subgroup         C1      NOp   1
 Largest concise Abelian subgroup C1      NOp   1
                         Standard orientation:                         
 ---------------------------------------------------------------------
 Center     Atomic      Atomic             Coordinates (Angstroms)
 Number     Number       Type             X           Y           Z
 ---------------------------------------------------------------------
      1          6           0        3.649787    0.712811    0.001886
      2          6           0        2.473390    1.404376   -0.002930
      3          6           0        1.217617    0.714398   -0.002230
      4          6           0        1.217524   -0.714379   -0.001906
      5          6           0        2.473241   -1.404448    0.001738
      6          6           0        3.649704   -0.712992    0.004269
      7          6           0        0.000062    1.403622   -0.002210
      8          6           0       -0.000053   -1.403553   -0.002866
      9          6           0       -1.217642   -0.714301   -0.002117
     10          6           0       -1.217550    0.714431   -0.000539
     11          6           0       -2.473295    1.404380    0.001627
     12          1           0       -2.459631    2.504770    0.003752
     13          6           0       -3.649756    0.712865    0.003509
     14          6           0       -3.649817   -0.712886    0.001167
     15          6           0       -2.473316   -1.404366   -0.001384
     16          1           0        0.000341    2.504577   -0.002393
     17          1           0        4.615647    1.239215    0.003770
     18          1           0        2.459849    2.504748   -0.004346
     19          1           0        2.459515   -2.504817    0.001610
     20          1           0        4.615790   -1.238975    0.006622
     21          1           0        0.000173   -2.504508   -0.002632
     22          1           0       -4.615725    1.239096    0.005885
     23          1           0       -4.615811   -1.239083    0.002781
     24          1           0       -2.459523   -2.504760   -0.003133
 ---------------------------------------------------------------------
 Rotational constants (GHZ):           2.1508332           0.4534727           0.3745128
 Standard basis: 6-31G (6D, 7F)
 There are   146 symmetry adapted cartesian basis functions of A   symmetry.
 There are   146 symmetry adapted basis functions of A   symmetry.
   146 basis functions,   348 primitive gaussians,   146 cartesian basis functions
    47 alpha electrons       47 beta electrons
       nuclear repulsion energy       766.4585602365 Hartrees.
 NAtoms=   24 NActive=   24 NUniq=   24 SFac= 1.00D+00 NAtFMM=   60 NAOKFM=F Big=F
 Integral buffers will be    131072 words long.
 Raffenetti 2 integral format.
 Two-electron integral symmetry is turned on.
 One-electron integrals computed using PRISM.
 NBasis=   146 RedAO= T EigKep=  2.94D-04  NBF=   146
 NBsUse=   146 1.00D-06 EigRej= -1.00D+00 NBFU=   146
 ExpMin= 1.61D-01 ExpMax= 3.05D+03 ExpMxC= 4.57D+02 IAcc=3 IRadAn=         5 AccDes= 0.00D+00
 Harris functional with IExCor=  402 and IRadAn=       5 diagonalized for initial guess.
 HarFok:  IExCor=  402 AccDes= 0.00D+00 IRadAn=         5 IDoV= 1 UseB2=F ITyADJ=14
 ICtDFT=  3500011 ScaDFX=  1.000000  1.000000  1.000000  1.000000
 FoFCou: FMM=F IPFlag=           0 FMFlag=      100000 FMFlg1=           0
         NFxFlg=           0 DoJE=T BraDBF=F KetDBF=T FulRan=T
         wScrn=  0.000000 ICntrl=       500 IOpCl=  0 I1Cent=   200000004 NGrid=           0
         NMat0=    1 NMatS0=      1 NMatT0=    0 NMatD0=    1 NMtDS0=    0 NMtDT0=    0
 Petite list used in FoFCou.
 Keep R1 ints in memory in canonical form, NReq=61469874.
 Requested convergence on RMS density matrix=1.00D-08 within 128 cycles.
 Requested convergence on MAX density matrix=1.00D-06.
 Requested convergence on             energy=1.00D-06.
 No special actions if energy rises.
 Integral accuracy reduced to 1.0D-05 until final iterations.
 Initial convergence to 1.0D-05 achieved.  Increase integral accuracy.
 SCF Done:  E(RB3LYP) =  -539.407930473     A.U. after   12 cycles
            NFock= 12  Conv=0.74D-08     -V/T= 2.0054

 **********************************************************************

            Population analysis using the SCF density.

 **********************************************************************

 Orbital symmetries:
       Occupied  (A) (A) (A) (A) (A) (A) (A) (A) (A) (A) (A) (A)
                 (A) (A) (A) (A) (A) (A) (A) (A) (A) (A) (A) (A)
                 (A) (A) (A) (A) (A) (A) (A) (A) (A) (A) (A) (A)
                 (A) (A) (A) (A) (A) (A) (A) (A) (A) (A) (A)
       Virtual   (A) (A) (A) (A) (A) (A) (A) (A) (A) (A) (A) (A)
                 (A) (A) (A) (A) (A) (A) (A) (A) (A) (A) (A) (A)
                 (A) (A) (A) (A) (A) (A) (A) (A) (A) (A) (A) (A)
                 (A) (A) (A) (A) (A) (A) (A) (A) (A) (A) (A) (A)
                 (A) (A) (A) (A) (A) (A) (A) (A) (A) (A) (A) (A)
                 (A) (A) (A) (A) (A) (A) (A) (A) (A) (A) (A) (A)
                 (A) (A) (A) (A) (A) (A) (A) (A) (A) (A) (A) (A)
                 (A) (A) (A) (A) (A) (A) (A) (A) (A) (A) (A) (A)
                 (A) (A) (A)
 The electronic state is 1-A.
 Alpha  occ. eigenvalues --  -10.19522 -10.19521 -10.19490 -10.19488 -10.18860
 Alpha  occ. eigenvalues --  -10.18860 -10.18842 -10.18842 -10.18807 -10.18806
 Alpha  occ. eigenvalues --  -10.18795 -10.18795 -10.18782 -10.18782  -0.88697
 Alpha  occ. eigenvalues --   -0.85451  -0.80559  -0.78579  -0.75316  -0.74195
 Alpha  occ. eigenvalues --   -0.70519  -0.64615  -0.61715  -0.60346  -0.59249
 Alpha  occ. eigenvalues --   -0.53746  -0.52383  -0.50456  -0.46586  -0.46135
 Alpha  occ. eigenvalues --   -0.45107  -0.44962  -0.42543  -0.41541  -0.40984
 Alpha  occ. eigenvalues --   -0.40232  -0.38905  -0.37776  -0.36267  -0.34619
 Alpha  occ. eigenvalues --   -0.33446  -0.32795  -0.30395  -0.29815  -0.25612
 Alpha  occ. eigenvalues --   -0.24139  -0.19404
 Alpha virt. eigenvalues --   -0.05842  -0.00646   0.00933   0.04543   0.07085
 Alpha virt. eigenvalues --    0.09578   0.09926   0.10675   0.13919   0.14220
 Alpha virt. eigenvalues --    0.15845   0.16386   0.16938   0.17793   0.17870
 Alpha virt. eigenvalues --    0.21010   0.21735   0.23811   0.26992   0.28183
 Alpha virt. eigenvalues --    0.31474   0.31777   0.32060   0.33343   0.34540
 Alpha virt. eigenvalues --    0.35151   0.40083   0.46695   0.49741   0.50512
 Alpha virt. eigenvalues --    0.50924   0.52750   0.53033   0.53578   0.55034
 Alpha virt. eigenvalues --    0.55593   0.55772   0.56655   0.58072   0.58871
 Alpha virt. eigenvalues --    0.60574   0.60860   0.61875   0.62290   0.62871
 Alpha virt. eigenvalues --    0.63541   0.63875   0.63891   0.64534   0.65945
 Alpha virt. eigenvalues --    0.66233   0.66749   0.67522   0.68431   0.69051
 Alpha virt. eigenvalues --    0.71310   0.74130   0.75251   0.81363   0.82544
 Alpha virt. eigenvalues --    0.83747   0.84166   0.84273   0.85370   0.85751
 Alpha virt. eigenvalues --    0.86327   0.87626   0.89504   0.91969   0.92700
 Alpha virt. eigenvalues --    0.95218   0.97488   0.99513   0.99886   1.02428
 Alpha virt. eigenvalues --    1.02908   1.08466   1.08621   1.10350   1.11830
 Alpha virt. eigenvalues --    1.13685   1.16399   1.17169   1.20444   1.23880
 Alpha virt. eigenvalues --    1.24023   1.25923   1.34327   1.37541   1.41501
 Alpha virt. eigenvalues --    1.46210   1.49337   1.52114   1.56120   1.57114
 Alpha virt. eigenvalues --    1.57282   1.92010   1.93473   1.96084
          Condensed to atoms (all electrons):
               1          2          3          4          5          6
     1  C    4.948607   0.531056  -0.029564  -0.029621  -0.047910   0.476495
     2  C    0.531056   5.037283   0.425657  -0.042243  -0.053522  -0.047921
     3  C   -0.029564   0.425657   4.881640   0.462114  -0.042243  -0.029625
     4  C   -0.029621  -0.042243   0.462114   4.881676   0.425620  -0.029569
     5  C   -0.047910  -0.053522  -0.042243   0.425620   5.037313   0.531062
     6  C    0.476495  -0.047921  -0.029625  -0.029569   0.531062   4.948568
     7  C    0.007413  -0.048028   0.402615  -0.047485   0.012430  -0.000119
     8  C   -0.000119   0.012427  -0.047481   0.402641  -0.048026   0.007413
     9  C    0.000021   0.000258  -0.019507  -0.017619   0.007416  -0.000415
    10  C   -0.000415   0.007417  -0.017606  -0.019500   0.000258   0.000021
    11  C    0.000002  -0.000210   0.007415   0.000257  -0.000011   0.000000
    12  H    0.000000   0.000005   0.000290   0.000016   0.000000   0.000000
    13  C    0.000000   0.000002  -0.000415   0.000021   0.000000   0.000000
    14  C    0.000000   0.000000   0.000021  -0.000415   0.000002   0.000000
    15  C    0.000000  -0.000011   0.000258   0.007415  -0.000211   0.000002
    16  H    0.000254  -0.003729  -0.036514   0.003185  -0.000245   0.000032
    17  H    0.348883  -0.027342   0.003277   0.000886   0.004181  -0.034669
    18  H   -0.034973   0.348564  -0.038655   0.003862   0.000675   0.004021
    19  H    0.004019   0.000675   0.003864  -0.038658   0.348568  -0.034971
    20  H   -0.034697   0.004185   0.000886   0.003274  -0.027322   0.348885
    21  H    0.000032  -0.000245   0.003185  -0.036515  -0.003729   0.000254
    22  H    0.000000   0.000000   0.000003   0.000000   0.000000   0.000000
    23  H    0.000000   0.000000   0.000000   0.000003   0.000000   0.000000
    24  H    0.000000   0.000000   0.000016   0.000291   0.000005   0.000000
               7          8          9         10         11         12
     1  C    0.007413  -0.000119   0.000021  -0.000415   0.000002   0.000000
     2  C   -0.048028   0.012427   0.000258   0.007417  -0.000210   0.000005
     3  C    0.402615  -0.047481  -0.019507  -0.017606   0.007415   0.000290
     4  C   -0.047485   0.402641  -0.017619  -0.019500   0.000257   0.000016
     5  C    0.012430  -0.048026   0.007416   0.000258  -0.000011   0.000000
     6  C   -0.000119   0.007413  -0.000415   0.000021   0.000000   0.000000
     7  C    5.320711  -0.086211  -0.047456   0.402538  -0.048034  -0.004873
     8  C   -0.086211   5.320706   0.402515  -0.047460   0.012433  -0.000223
     9  C   -0.047456   0.402515   4.881727   0.462137  -0.042254   0.003865
    10  C    0.402538  -0.047460   0.462137   4.881634   0.425680  -0.038655
    11  C   -0.048034   0.012433  -0.042254   0.425680   5.037315   0.348561
    12  H   -0.004873  -0.000223   0.003865  -0.038655   0.348561   0.589518
    13  C    0.007414  -0.000119  -0.029624  -0.029578   0.531054  -0.034970
    14  C   -0.000120   0.007416  -0.029564  -0.029630  -0.047901   0.004020
    15  C    0.012427  -0.048026   0.425708  -0.042258  -0.053537   0.000676
    16  H    0.342626   0.001135   0.003181  -0.036494  -0.003721   0.005631
    17  H   -0.000198   0.000003   0.000000   0.000003   0.000000   0.000000
    18  H   -0.004873  -0.000223   0.000016   0.000290   0.000005   0.000002
    19  H   -0.000223  -0.004875   0.000290   0.000016   0.000000   0.000000
    20  H    0.000003  -0.000198   0.000003   0.000000   0.000000   0.000000
    21  H    0.001136   0.342629  -0.036496   0.003180  -0.000245   0.000002
    22  H   -0.000198   0.000003   0.000886   0.003276  -0.027330  -0.004114
    23  H    0.000003  -0.000198   0.003274   0.000887   0.004182  -0.000174
    24  H   -0.000223  -0.004875  -0.038659   0.003863   0.000675   0.000016
              13         14         15         16         17         18
     1  C    0.000000   0.000000   0.000000   0.000254   0.348883  -0.034973
     2  C    0.000002   0.000000  -0.000011  -0.003729  -0.027342   0.348564
     3  C   -0.000415   0.000021   0.000258  -0.036514   0.003277  -0.038655
     4  C    0.000021  -0.000415   0.007415   0.003185   0.000886   0.003862
     5  C    0.000000   0.000002  -0.000211  -0.000245   0.004181   0.000675
     6  C    0.000000   0.000000   0.000002   0.000032  -0.034669   0.004021
     7  C    0.007414  -0.000120   0.012427   0.342626  -0.000198  -0.004873
     8  C   -0.000119   0.007416  -0.048026   0.001135   0.000003  -0.000223
     9  C   -0.029624  -0.029564   0.425708   0.003181   0.000000   0.000016
    10  C   -0.029578  -0.029630  -0.042258  -0.036494   0.000003   0.000290
    11  C    0.531054  -0.047901  -0.053537  -0.003721   0.000000   0.000005
    12  H   -0.034970   0.004020   0.000676   0.005631   0.000000   0.000002
    13  C    4.948577   0.476520  -0.047927   0.000254   0.000000   0.000000
    14  C    0.476520   4.948618   0.531019   0.000032   0.000000   0.000000
    15  C   -0.047927   0.531019   5.037265  -0.000245   0.000000   0.000000
    16  H    0.000254   0.000032  -0.000245   0.584863  -0.000010   0.005635
    17  H    0.000000   0.000000   0.000000  -0.000010   0.586699  -0.004115
    18  H    0.000000   0.000000   0.000000   0.005635  -0.004115   0.589510
    19  H    0.000000   0.000000   0.000005   0.000002  -0.000174   0.000016
    20  H    0.000000   0.000000   0.000000   0.000000  -0.004013  -0.000174
    21  H    0.000032   0.000254  -0.003720   0.000022   0.000000   0.000002
    22  H    0.348885  -0.034687   0.004184  -0.000010   0.000000   0.000000
    23  H   -0.034680   0.348879  -0.027323   0.000000   0.000000   0.000000
    24  H    0.004019  -0.034965   0.348567   0.000002   0.000000   0.000000
              19         20         21         22         23         24
     1  C    0.004019  -0.034697   0.000032   0.000000   0.000000   0.000000
     2  C    0.000675   0.004185  -0.000245   0.000000   0.000000   0.000000
     3  C    0.003864   0.000886   0.003185   0.000003   0.000000   0.000016
     4  C   -0.038658   0.003274  -0.036515   0.000000   0.000003   0.000291
     5  C    0.348568  -0.027322  -0.003729   0.000000   0.000000   0.000005
     6  C   -0.034971   0.348885   0.000254   0.000000   0.000000   0.000000
     7  C   -0.000223   0.000003   0.001136  -0.000198   0.000003  -0.000223
     8  C   -0.004875  -0.000198   0.342629   0.000003  -0.000198  -0.004875
     9  C    0.000290   0.000003  -0.036496   0.000886   0.003274  -0.038659
    10  C    0.000016   0.000000   0.003180   0.003276   0.000887   0.003863
    11  C    0.000000   0.000000  -0.000245  -0.027330   0.004182   0.000675
    12  H    0.000000   0.000000   0.000002  -0.004114  -0.000174   0.000016
    13  C    0.000000   0.000000   0.000032   0.348885  -0.034680   0.004019
    14  C    0.000000   0.000000   0.000254  -0.034687   0.348879  -0.034965
    15  C    0.000005   0.000000  -0.003720   0.004184  -0.027323   0.348567
    16  H    0.000002   0.000000   0.000022  -0.000010   0.000000   0.000002
    17  H   -0.000174  -0.004013   0.000000   0.000000   0.000000   0.000000
    18  H    0.000016  -0.000174   0.000002   0.000000   0.000000   0.000000
    19  H    0.589507  -0.004112   0.005637   0.000000   0.000000   0.000002
    20  H   -0.004112   0.586697  -0.000010   0.000000   0.000000   0.000000
    21  H    0.005637  -0.000010   0.584861   0.000000  -0.000010   0.005632
    22  H    0.000000   0.000000   0.000000   0.586698  -0.004014  -0.000174
    23  H    0.000000   0.000000  -0.000010  -0.004014   0.586679  -0.004111
    24  H    0.000002   0.000000   0.005632  -0.000174  -0.004111   0.589498
 Mulliken charges:
               1
     1  C   -0.139485
     2  C   -0.144277
     3  C    0.070368
     4  C    0.070363
     5  C   -0.144312
     6  C   -0.139464
     7  C   -0.221278
     8  C   -0.221290
     9  C    0.070297
    10  C    0.070396
    11  C   -0.144337
    12  H    0.130408
    13  C   -0.139465
    14  C   -0.139498
    15  C   -0.144269
    16  H    0.134113
    17  H    0.126588
    18  H    0.130413
    19  H    0.130411
    20  H    0.126592
    21  H    0.134113
    22  H    0.126591
    23  H    0.126602
    24  H    0.130420
 Sum of Mulliken charges =   0.00000
 Mulliken charges with hydrogens summed into heavy atoms:
               1
     1  C   -0.012897
     2  C   -0.013864
     3  C    0.070368
     4  C    0.070363
     5  C   -0.013901
     6  C   -0.012872
     7  C   -0.087164
     8  C   -0.087177
     9  C    0.070297
    10  C    0.070396
    11  C   -0.013929
    13  C   -0.012875
    14  C   -0.012896
    15  C   -0.013850
 Electronic spatial extent (au):  <R**2>=           2850.6313
 Charge=              0.0000 electrons
 Dipole moment (field-independent basis, Debye):
    X=              0.0003    Y=              0.0001    Z=              0.0039  Tot=              0.0039
 Quadrupole moment (field-independent basis, Debye-Ang):
   XX=            -70.6869   YY=            -71.1387   ZZ=            -86.5215
   XY=              0.0017   XZ=             -0.0021   YZ=              0.0046
 Traceless Quadrupole moment (field-independent basis, Debye-Ang):
   XX=              5.4288   YY=              4.9770   ZZ=            -10.4058
   XY=              0.0017   XZ=             -0.0021   YZ=              0.0046
 Octapole moment (field-independent basis, Debye-Ang**2):
  XXX=              0.0001  YYY=              0.0007  ZZZ=              0.0009  XYY=              0.0038
  XXY=              0.0045  XXZ=              0.1531  XZZ=              0.0002  YZZ=              0.0001
  YYZ=             -0.0029  XYZ=             -0.0360
 Hexadecapole moment (field-independent basis, Debye-Ang**3):
 XXXX=          -2805.7943 YYYY=           -689.0536 ZZZZ=            -89.9010 XXXY=              0.0279
 XXXZ=              0.0306 YYYX=              0.0119 YYYZ=              0.0291 ZZZX=             -0.0030
 ZZZY=              0.0044 XXYY=           -597.0803 XXZZ=           -591.3562 YYZZ=           -154.7071
 XXYZ=              0.0379 YYXZ=             -0.0284 ZZXY=              0.0002
 N-N= 7.664585602365D+02 E-N=-2.783566371549D+03  KE= 5.364973764494D+02
 Calling FoFJK, ICntrl=      2127 FMM=F ISym2X=0 I1Cent= 0 IOpClX= 0 NMat=1 NMatS=1 NMatT=0.
 ***** Axes restored to original set *****
 -------------------------------------------------------------------
 Center     Atomic                   Forces (Hartrees/Bohr)
 Number     Number              X              Y              Z
 -------------------------------------------------------------------
      1        6          -0.011570072   -0.011825630   -0.000046915
      2        6           0.010810864   -0.009166028    0.000332976
      3        6           0.004217081   -0.013289048   -0.000174488
      4        6          -0.009587369    0.010126694    0.000107445
      5        6          -0.002773127    0.013914733   -0.000199572
      6        6          -0.015985079   -0.004456137   -0.000090981
      7        6           0.004657966   -0.007958988    0.000103906
      8        6          -0.004681808    0.007932797    0.000007179
      9        6          -0.004283279    0.013317444   -0.000007185
     10        6           0.009590891   -0.010165566   -0.000115140
     11        6           0.002792693   -0.013933424    0.000228621
     12        1          -0.004024385    0.008362125   -0.000104357
     13        6           0.015995231    0.004373726   -0.000053297
     14        6           0.011571878    0.011838260    0.000155155
     15        6          -0.010781896    0.009207271   -0.000148993
     16        1          -0.004690242    0.008044741   -0.000030974
     17        1           0.006016876    0.007513909   -0.000056309
     18        1          -0.005330284    0.007581286   -0.000051568
     19        1           0.004019582   -0.008349398    0.000088192
     20        1           0.009486438    0.001675368    0.000056730
     21        1           0.004745920   -0.008012581    0.000018664
     22        1          -0.009497769   -0.001641500   -0.000036839
     23        1          -0.006056312   -0.007504557   -0.000061832
     24        1           0.005356202   -0.007585494    0.000079580
 -------------------------------------------------------------------
 Cartesian Forces:  Max     0.015995231 RMS     0.007209493

 GradGradGradGradGradGradGradGradGradGradGradGradGradGradGradGradGradGrad
 Berny optimization.
 FormGI is forming the generalized inverse of G from B-inverse, IUseBI=4.
 Internal  Forces:  Max     0.013825261 RMS     0.003684085
 Search for a local minimum.
 Step number   1 out of a maximum of  142
 All quantities printed in internal units (Hartrees-Bohrs-Radians)
 Mixed Optimization -- RFO/linear search
 Second derivative matrix not updated -- first step.
 ITU=  0
     Eigenvalues ---    0.01753   0.01761   0.01770   0.01819   0.01820
     Eigenvalues ---    0.01905   0.01979   0.01979   0.02000   0.02009
     Eigenvalues ---    0.02100   0.02100   0.02100   0.02119   0.02119
     Eigenvalues ---    0.02155   0.02155   0.02224   0.02226   0.02348
     Eigenvalues ---    0.02351   0.16000   0.16000   0.16000   0.16000
     Eigenvalues ---    0.16000   0.16000   0.16000   0.16000   0.16000
     Eigenvalues ---    0.16000   0.22000   0.22000   0.22418   0.22571
     Eigenvalues ---    0.23279   0.23870   0.24474   0.24630   0.25000
     Eigenvalues ---    0.33577   0.33577   0.33629   0.33629   0.33632
     Eigenvalues ---    0.33632   0.33681   0.33681   0.33683   0.33683
     Eigenvalues ---    0.35786   0.38233   0.38542   0.38614   0.40222
     Eigenvalues ---    0.40749   0.41161   0.41414   0.41774   0.44931
     Eigenvalues ---    0.45767   0.45768   0.49847   0.49859   0.51294
     Eigenvalues ---    0.51336
 RFO step:  Lambda=-4.79320600D-03 EMin= 1.75341455D-02
 Linear search not attempted -- first point.
 Iteration  1 RMS(Cart)=  0.01300193 RMS(Int)=  0.00004373
 Iteration  2 RMS(Cart)=  0.00005725 RMS(Int)=  0.00000405
 Iteration  3 RMS(Cart)=  0.00000000 RMS(Int)=  0.00000405
 Variable       Old X    -DE/DX   Delta X   Delta X   Delta X     New X
                                 (Linear)    (Quad)   (Total)
    R1        2.57876   0.00802   0.00000   0.01528   0.01528   2.59404
    R2        2.69438   0.00482   0.00000   0.01146   0.01145   2.70583
    R3        2.07869  -0.00954   0.00000  -0.02792  -0.02792   2.05077
    R4        2.70768   0.00281   0.00000   0.00684   0.00685   2.71452
    R5        2.07956  -0.00925   0.00000  -0.02710  -0.02710   2.05246
    R6        2.70000   0.01380   0.00000   0.03312   0.03313   2.73312
    R7        2.64391   0.00538   0.00000   0.01164   0.01164   2.65555
    R8        2.70768   0.00282   0.00000   0.00687   0.00687   2.71455
    R9        2.64390   0.00538   0.00000   0.01163   0.01163   2.65553
   R10        2.57875   0.00800   0.00000   0.01525   0.01525   2.59400
   R11        2.07956  -0.00924   0.00000  -0.02710  -0.02710   2.05246
   R12        2.07869  -0.00954   0.00000  -0.02792  -0.02792   2.05077
   R13        2.64397   0.00535   0.00000   0.01156   0.01156   2.65554
   R14        2.08050  -0.00931   0.00000  -0.02734  -0.02734   2.05316
   R15        2.64399   0.00535   0.00000   0.01157   0.01157   2.65556
   R16        2.08050  -0.00931   0.00000  -0.02734  -0.02734   2.05316
   R17        2.69991   0.01383   0.00000   0.03319   0.03319   2.73311
   R18        2.70759   0.00284   0.00000   0.00691   0.00691   2.71450
   R19        2.70761   0.00284   0.00000   0.00691   0.00691   2.71451
   R20        2.07960  -0.00926   0.00000  -0.02714  -0.02714   2.05246
   R21        2.57881   0.00799   0.00000   0.01523   0.01523   2.59404
   R22        2.69428   0.00485   0.00000   0.01152   0.01152   2.70581
   R23        2.07872  -0.00955   0.00000  -0.02795  -0.02795   2.05077
   R24        2.57884   0.00798   0.00000   0.01521   0.01521   2.59405
   R25        2.07873  -0.00955   0.00000  -0.02796  -0.02796   2.05076
   R26        2.07961  -0.00926   0.00000  -0.02716  -0.02716   2.05245
    A1        2.10219   0.00000   0.00000  -0.00020  -0.00020   2.10199
    A2        2.11114  -0.00135   0.00000  -0.00806  -0.00806   2.10308
    A3        2.06985   0.00134   0.00000   0.00826   0.00826   2.07812
    A4        2.10772   0.00076   0.00000   0.00314   0.00314   2.11086
    A5        2.11455  -0.00104   0.00000  -0.00560  -0.00560   2.10895
    A6        2.06091   0.00029   0.00000   0.00247   0.00247   2.06337
    A7        2.07328  -0.00076   0.00000  -0.00294  -0.00294   2.07034
    A8        2.12408   0.00224   0.00000   0.00918   0.00918   2.13325
    A9        2.08583  -0.00147   0.00000  -0.00623  -0.00623   2.07960
   A10        2.07322  -0.00074   0.00000  -0.00286  -0.00286   2.07036
   A11        2.08592  -0.00150   0.00000  -0.00633  -0.00633   2.07960
   A12        2.12404   0.00224   0.00000   0.00919   0.00919   2.13323
   A13        2.10775   0.00075   0.00000   0.00312   0.00312   2.11087
   A14        2.06081   0.00030   0.00000   0.00255   0.00255   2.06336
   A15        2.11463  -0.00105   0.00000  -0.00567  -0.00567   2.10896
   A16        2.10221  -0.00001   0.00000  -0.00024  -0.00025   2.10196
   A17        2.06931   0.00142   0.00000   0.00872   0.00872   2.07803
   A18        2.11167  -0.00141   0.00000  -0.00847  -0.00847   2.10320
   A19        2.11143   0.00297   0.00000   0.01256   0.01256   2.12399
   A20        2.08564  -0.00145   0.00000  -0.00608  -0.00608   2.07956
   A21        2.08611  -0.00152   0.00000  -0.00648  -0.00648   2.07963
   A22        2.11143   0.00297   0.00000   0.01256   0.01257   2.12399
   A23        2.08565  -0.00145   0.00000  -0.00610  -0.00610   2.07955
   A24        2.08611  -0.00151   0.00000  -0.00646  -0.00646   2.07964
   A25        2.08584  -0.00147   0.00000  -0.00624  -0.00624   2.07959
   A26        2.12399   0.00225   0.00000   0.00924   0.00923   2.13322
   A27        2.07336  -0.00078   0.00000  -0.00299  -0.00299   2.07037
   A28        2.08592  -0.00149   0.00000  -0.00632  -0.00632   2.07960
   A29        2.12413   0.00223   0.00000   0.00913   0.00912   2.13325
   A30        2.07314  -0.00073   0.00000  -0.00281  -0.00281   2.07034
   A31        2.06079   0.00031   0.00000   0.00259   0.00259   2.06338
   A32        2.10779   0.00074   0.00000   0.00307   0.00307   2.11086
   A33        2.11460  -0.00105   0.00000  -0.00566  -0.00566   2.10894
   A34        2.10223   0.00000   0.00000  -0.00024  -0.00025   2.10198
   A35        2.11138  -0.00138   0.00000  -0.00827  -0.00827   2.10311
   A36        2.06958   0.00139   0.00000   0.00851   0.00852   2.07809
   A37        2.10211   0.00002   0.00000  -0.00015  -0.00016   2.10196
   A38        2.06962   0.00138   0.00000   0.00847   0.00847   2.07809
   A39        2.11145  -0.00139   0.00000  -0.00832  -0.00832   2.10314
   A40        2.10773   0.00076   0.00000   0.00313   0.00313   2.11086
   A41        2.06076   0.00031   0.00000   0.00258   0.00258   2.06335
   A42        2.11469  -0.00106   0.00000  -0.00571  -0.00571   2.10898
    D1        0.00280  -0.00006   0.00000  -0.00258  -0.00259   0.00022
    D2        3.14110   0.00003   0.00000   0.00087   0.00086  -3.14123
    D3       -3.13904  -0.00006   0.00000  -0.00237  -0.00237  -3.14141
    D4       -0.00075   0.00003   0.00000   0.00109   0.00108   0.00033
    D5        0.00002   0.00000   0.00000   0.00006   0.00006   0.00008
    D6        3.14001   0.00004   0.00000   0.00163   0.00164  -3.14154
    D7       -3.14132   0.00000   0.00000  -0.00015  -0.00016  -3.14148
    D8       -0.00134   0.00004   0.00000   0.00142   0.00142   0.00008
    D9       -0.00441   0.00010   0.00000   0.00404   0.00404  -0.00037
   D10        3.13748   0.00008   0.00000   0.00326   0.00325   3.14073
   D11        3.14038   0.00002   0.00000   0.00071   0.00070   3.14109
   D12       -0.00091   0.00000   0.00000  -0.00008  -0.00009  -0.00100
   D13        0.00321  -0.00007   0.00000  -0.00299  -0.00298   0.00023
   D14       -3.14024  -0.00003   0.00000  -0.00144  -0.00144   3.14150
   D15       -3.13867  -0.00005   0.00000  -0.00222  -0.00222  -3.14089
   D16        0.00106  -0.00001   0.00000  -0.00067  -0.00067   0.00039
   D17       -3.14077  -0.00001   0.00000  -0.00035  -0.00035  -3.14112
   D18       -0.00037   0.00002   0.00000   0.00079   0.00080   0.00043
   D19        0.00112  -0.00003   0.00000  -0.00114  -0.00114  -0.00003
   D20        3.14152   0.00000   0.00000   0.00000   0.00000   3.14153
   D21       -0.00049   0.00001   0.00000   0.00055   0.00055   0.00006
   D22       -3.14124  -0.00001   0.00000  -0.00011  -0.00011  -3.14135
   D23       -3.14018  -0.00002   0.00000  -0.00102  -0.00102  -3.14121
   D24        0.00225  -0.00004   0.00000  -0.00168  -0.00168   0.00057
   D25       -0.00169   0.00004   0.00000   0.00136   0.00137  -0.00032
   D26        3.14158  -0.00001   0.00000  -0.00040  -0.00041   3.14117
   D27        3.13799   0.00007   0.00000   0.00295   0.00295   3.14095
   D28       -0.00193   0.00002   0.00000   0.00118   0.00118  -0.00075
   D29       -0.00117   0.00003   0.00000   0.00096   0.00096  -0.00022
   D30       -3.14112  -0.00001   0.00000  -0.00066  -0.00066   3.14141
   D31        3.13955   0.00004   0.00000   0.00164   0.00164   3.14119
   D32       -0.00039   0.00000   0.00000   0.00002   0.00002  -0.00037
   D33       -0.00265   0.00006   0.00000   0.00224   0.00224  -0.00041
   D34        3.13985   0.00003   0.00000   0.00120   0.00119   3.14104
   D35        3.14013   0.00003   0.00000   0.00109   0.00110   3.14123
   D36       -0.00055   0.00000   0.00000   0.00005   0.00005  -0.00051
   D37        0.00016  -0.00001   0.00000  -0.00027  -0.00027  -0.00011
   D38       -3.14020  -0.00003   0.00000  -0.00121  -0.00122  -3.14142
   D39        3.14008   0.00003   0.00000   0.00150   0.00151   3.14158
   D40       -0.00028   0.00001   0.00000   0.00056   0.00056   0.00028
   D41        0.00201  -0.00004   0.00000  -0.00154  -0.00153   0.00047
   D42       -3.14046  -0.00001   0.00000  -0.00052  -0.00052  -3.14098
   D43       -3.14079  -0.00002   0.00000  -0.00061  -0.00061  -3.14140
   D44       -0.00007   0.00001   0.00000   0.00041   0.00040   0.00033
   D45        3.14003   0.00002   0.00000   0.00099   0.00100   3.14103
   D46       -0.00176   0.00002   0.00000   0.00104   0.00105  -0.00071
   D47       -0.00033   0.00000   0.00000   0.00006   0.00006  -0.00027
   D48        3.14106   0.00000   0.00000   0.00011   0.00011   3.14117
   D49       -0.00185   0.00004   0.00000   0.00166   0.00167  -0.00018
   D50       -3.14136  -0.00001   0.00000  -0.00033  -0.00032   3.14150
   D51        3.14064   0.00001   0.00000   0.00062   0.00063   3.14127
   D52        0.00113  -0.00004   0.00000  -0.00137  -0.00136  -0.00023
   D53       -0.00178   0.00005   0.00000   0.00183   0.00183   0.00006
   D54        3.14084   0.00002   0.00000   0.00084   0.00085  -3.14150
   D55       -3.14122  -0.00001   0.00000  -0.00023  -0.00023  -3.14144
   D56        0.00140  -0.00003   0.00000  -0.00122  -0.00121   0.00019
   D57        0.00136  -0.00004   0.00000  -0.00135  -0.00135   0.00001
   D58        3.14159   0.00000   0.00000  -0.00005  -0.00005   3.14155
   D59       -3.14123  -0.00001   0.00000  -0.00039  -0.00039   3.14157
   D60       -0.00100   0.00002   0.00000   0.00090   0.00091  -0.00009
   D61       -0.00029   0.00001   0.00000   0.00039   0.00039   0.00010
   D62        3.14151   0.00001   0.00000   0.00033   0.00033  -3.14134
   D63       -3.14049  -0.00003   0.00000  -0.00095  -0.00095  -3.14143
   D64        0.00132  -0.00003   0.00000  -0.00101  -0.00100   0.00032
         Item               Value     Threshold  Converged?
 Maximum Force            0.013825     0.000450     NO 
 RMS     Force            0.003684     0.000300     NO 
 Maximum Displacement     0.041334     0.001800     NO 
 RMS     Displacement     0.012981     0.001200     NO 
 Predicted change in Energy=-2.429093D-03
 GradGradGradGradGradGradGradGradGradGradGradGradGradGradGradGradGradGrad

                          Input orientation:                          
 ---------------------------------------------------------------------
 Center     Atomic      Atomic             Coordinates (Angstroms)
 Number     Number       Type             X           Y           Z
 ---------------------------------------------------------------------
      1          6           0       -6.059169   -2.902988   -0.008642
      2          6           0       -4.686466   -2.902633   -0.004674
      3          6           0       -3.948163   -1.670425   -0.005589
      4          6           0       -4.681116   -0.423608   -0.011260
      5          6           0       -6.116856   -0.469405   -0.015456
      6          6           0       -6.784802   -1.668618   -0.014063
      7          6           0       -2.543279   -1.638594   -0.000581
      8          6           0       -3.970049    0.788456   -0.012099
      9          6           0       -2.565154    0.820284   -0.007188
     10          6           0       -1.832213   -0.426525   -0.000973
     11          6           0       -0.396496   -0.380695    0.004778
     12          1           0        0.147385   -1.320808    0.009736
     13          6           0        0.271425    0.818554    0.004140
     14          6           0       -0.454198    2.052907   -0.002234
     15          6           0       -1.826896    2.052508   -0.007772
     16          1           0       -1.992708   -2.575239    0.003743
     17          1           0       -6.609684   -3.838207   -0.007749
     18          1           0       -4.129542   -3.835084   -0.000891
     19          1           0       -6.660702    0.470731   -0.019938
     20          1           0       -7.869701   -1.694897   -0.017083
     21          1           0       -4.520694    1.725056   -0.016760
     22          1           0        1.356321    0.844768    0.008420
     23          1           0        0.096340    2.988110   -0.002566
     24          1           0       -2.383867    2.984921   -0.012860
 ---------------------------------------------------------------------
                    Distance matrix (angstroms):
                    1          2          3          4          5
     1  C    0.000000
     2  C    1.372709   0.000000
     3  C    2.444497   1.436464   0.000000
     4  C    2.836611   2.479040   1.446307   0.000000
     5  C    2.434276   2.822540   2.479067   1.436476   0.000000
     6  C    1.431866   2.434317   2.836652   2.444495   1.372686
     7  C    3.736340   2.488184   1.405254   2.458994   3.760010
     8  C    4.241603   3.759980   2.458987   1.405247   2.488174
     9  C    5.105967   4.284867   2.848921   2.454502   3.778618
    10  C    4.898988   3.778609   2.454497   2.848924   4.284882
    11  C    6.199033   4.976354   3.778604   4.284865   5.721083
    12  H    6.405072   5.086108   4.110472   4.911195   6.321886
    13  C    7.343464   6.199032   4.898984   5.105964   6.516852
    14  C    7.481754   6.516861   5.105978   4.898984   6.199027
    15  C    6.516829   5.721064   4.284858   3.778589   4.976330
    16  H    4.079666   2.713593   2.154665   3.443440   4.630712
    17  H    1.085220   2.138708   3.432634   3.921590   3.404668
    18  H    2.142971   1.086114   2.172250   3.455793   3.908634
    19  H    3.426944   3.908635   3.455810   2.172252   1.086115
    20  H    2.176598   3.404669   3.921631   3.432679   2.138761
    21  H    4.877064   4.630673   3.443429   2.154651   2.713557
    22  H    8.308758   7.110448   5.870601   6.169264   7.587885
    23  H    8.520292   7.587892   6.169276   5.870604   7.110442
    24  H    6.940845   6.321813   4.911143   4.110405   5.086018
                    6          7          8          9         10
     6  C    0.000000
     7  C    4.241651   0.000000
     8  C    3.736316   2.815383   0.000000
     9  C    4.898991   2.458985   1.405264   0.000000
    10  C    5.105988   1.405249   2.458993   1.446297   0.000000
    11  C    6.516867   2.488175   3.759984   2.479026   1.436459
    12  H    6.940948   2.709385   4.626309   3.455782   2.172249
    13  C    7.481758   3.736330   4.241612   2.836602   2.444492
    14  C    7.343463   4.241632   3.736327   2.444487   2.836637
    15  C    6.199004   3.759985   2.488161   1.436453   2.479048
    16  H    4.877135   1.086485   3.901868   3.443457   2.154705
    17  H    2.176653   4.623202   5.326697   6.169259   5.870592
    18  H    3.426974   2.709391   4.626304   4.911192   4.110474
    19  H    2.142954   4.626316   2.709359   4.110458   4.911185
    20  H    1.085221   5.326746   4.623241   5.870644   6.169303
    21  H    4.079610   3.901867   1.086485   2.154725   3.443469
    22  H    8.520300   4.623208   5.326707   3.921583   3.432641
    23  H    8.308753   5.326724   4.623212   3.432643   3.921614
    24  H    6.404971   4.626279   2.709323   2.172222   3.455782
                   11         12         13         14         15
    11  C    0.000000
    12  H    1.086114   0.000000
    13  C    1.372705   2.142963   0.000000
    14  C    2.434296   3.426952   1.431851   0.000000
    15  C    2.822531   3.908626   2.434284   1.372710   0.000000
    16  H    2.713654   2.480652   4.079722   4.877170   4.630731
    17  H    7.110432   7.210796   8.308744   8.520285   7.587857
    18  H    5.086105   4.961230   6.405067   6.940936   6.321864
    19  H    6.321852   7.039925   6.940890   6.405021   5.086044
    20  H    7.587911   8.025854   8.520319   8.308787   7.110459
    21  H    4.630729   5.573953   4.877149   4.079717   2.713641
    22  H    2.138725   2.480172   1.085221   2.176624   3.404669
    23  H    3.404672   4.309239   2.176620   1.085218   2.138742
    24  H    3.908622   4.994703   3.426954   2.142986   1.086111
                   16         17         18         19         20
    16  H    0.000000
    17  H    4.786615   0.000000
    18  H    2.480582   2.480153   0.000000
    19  H    5.573927   4.309257   4.994715   0.000000
    20  H    5.942599   2.486264   4.309229   2.480248   0.000000
    21  H    4.988353   5.942546   5.573904   2.480520   4.786641
    22  H    4.786698   9.240549   7.210812   8.025794   9.569224
    23  H    5.942644   9.569190   8.025837   7.210764   9.240595
    24  H    5.573927   8.025748   7.039886   4.961101   7.210762
                   21         22         23         24
    21  H    0.000000
    22  H    5.942630   0.000000
    23  H    4.786701   2.486280   0.000000
    24  H    2.480585   4.309260   2.480231   0.000000
 Stoichiometry    C14H10
 Framework group  C1[X(C14H10)]
 Deg. of freedom    66
 Full point group                 C1      NOp   1
 Largest Abelian subgroup         C1      NOp   1
 Largest concise Abelian subgroup C1      NOp   1
                         Standard orientation:                         
 ---------------------------------------------------------------------
 Center     Atomic      Atomic             Coordinates (Angstroms)
 Number     Number       Type             X           Y           Z
 ---------------------------------------------------------------------
      1          6           0        3.671729    0.715913    0.000431
      2          6           0        2.488172    1.411271   -0.000475
      3          6           0        1.227243    0.723169   -0.000687
      4          6           0        1.227247   -0.723138   -0.000393
      5          6           0        2.488175   -1.411268    0.000386
      6          6           0        3.671731   -0.715953    0.000916
      7          6           0       -0.000010    1.407705   -0.000583
      8          6           0        0.000005   -1.407678   -0.000488
      9          6           0       -1.227255   -0.723134   -0.000481
     10          6           0       -1.227254    0.723164   -0.000231
     11          6           0       -2.488182    1.411259    0.000545
     12          1           0       -2.480623    2.497347    0.001036
     13          6           0       -3.671735    0.715904    0.000770
     14          6           0       -3.671732   -0.715947    0.000302
     15          6           0       -2.488154   -1.411271   -0.000362
     16          1           0        0.000026    2.494190   -0.000741
     17          1           0        4.620263    1.243156    0.000757
     18          1           0        2.480606    2.497358   -0.001184
     19          1           0        2.480574   -2.497356    0.000371
     20          1           0        4.620315   -1.243108    0.001678
     21          1           0        0.000057   -2.494162   -0.000668
     22          1           0       -4.620287    1.243118    0.001267
     23          1           0       -4.620279   -1.243162    0.000537
     24          1           0       -2.480526   -2.497355   -0.000957
 ---------------------------------------------------------------------
 Rotational constants (GHZ):           2.1344335           0.4482527           0.3704537
 Standard basis: 6-31G (6D, 7F)
 There are   146 symmetry adapted cartesian basis functions of A   symmetry.
 There are   146 symmetry adapted basis functions of A   symmetry.
   146 basis functions,   348 primitive gaussians,   146 cartesian basis functions
    47 alpha electrons       47 beta electrons
       nuclear repulsion energy       763.1921267008 Hartrees.
 NAtoms=   24 NActive=   24 NUniq=   24 SFac= 1.00D+00 NAtFMM=   60 NAOKFM=F Big=F
 Integral buffers will be    131072 words long.
 Raffenetti 2 integral format.
 Two-electron integral symmetry is turned on.
 One-electron integrals computed using PRISM.
 NBasis=   146 RedAO= T EigKep=  3.08D-04  NBF=   146
 NBsUse=   146 1.00D-06 EigRej= -1.00D+00 NBFU=   146
 Initial guess from the checkpoint file:  "anthracene_opt.chk"
 B after Tr=     0.000000    0.000000    0.000000
         Rot=    1.000000    0.000000    0.000000   -0.000007 Ang=   0.00 deg.
 ExpMin= 1.61D-01 ExpMax= 3.05D+03 ExpMxC= 4.57D+02 IAcc=2 IRadAn=         4 AccDes= 0.00D+00
 Harris functional with IExCor=  402 and IRadAn=       4 diagonalized for initial guess.
 HarFok:  IExCor=  402 AccDes= 0.00D+00 IRadAn=         4 IDoV= 1 UseB2=F ITyADJ=14
 ICtDFT=  3500011 ScaDFX=  1.000000  1.000000  1.000000  1.000000
 FoFCou: FMM=F IPFlag=           0 FMFlag=      100000 FMFlg1=           0
         NFxFlg=           0 DoJE=T BraDBF=F KetDBF=T FulRan=T
         wScrn=  0.000000 ICntrl=       500 IOpCl=  0 I1Cent=   200000004 NGrid=           0
         NMat0=    1 NMatS0=      1 NMatT0=    0 NMatD0=    1 NMtDS0=    0 NMtDT0=    0
 Petite list used in FoFCou.
 Keep R1 ints in memory in canonical form, NReq=61469874.
 Requested convergence on RMS density matrix=1.00D-08 within 128 cycles.
 Requested convergence on MAX density matrix=1.00D-06.
 Requested convergence on             energy=1.00D-06.
 No special actions if energy rises.
 Integral accuracy reduced to 1.0D-05 until final iterations.
 Initial convergence to 1.0D-05 achieved.  Increase integral accuracy.
 SCF Done:  E(RB3LYP) =  -539.410305286     A.U. after   11 cycles
            NFock= 11  Conv=0.55D-08     -V/T= 2.0056
 Calling FoFJK, ICntrl=      2127 FMM=F ISym2X=0 I1Cent= 0 IOpClX= 0 NMat=1 NMatS=1 NMatT=0.
 ***** Axes restored to original set *****
 -------------------------------------------------------------------
 Center     Atomic                   Forces (Hartrees/Bohr)
 Number     Number              X              Y              Z
 -------------------------------------------------------------------
      1        6          -0.001458890    0.001621878   -0.000011134
      2        6           0.001759782    0.002017146   -0.000020119
      3        6           0.000826010   -0.002764529    0.000039809
      4        6          -0.002020423    0.002065868    0.000008097
      5        6           0.002627579    0.000576869   -0.000023142
      6        6           0.000702589   -0.002099820    0.000009448
      7        6          -0.001006484    0.001691671   -0.000022791
      8        6           0.001000714   -0.001701162   -0.000023817
      9        6          -0.000845039    0.002770409    0.000001874
     10        6           0.002019674   -0.002069310    0.000021029
     11        6          -0.002615975   -0.000564162   -0.000020833
     12        1           0.000429238    0.000023427   -0.000007865
     13        6          -0.000700300    0.002070772   -0.000004227
     14        6           0.001461791   -0.001623142    0.000005992
     15        6          -0.001757394   -0.002013387   -0.000013099
     16        1           0.000233480   -0.000388562    0.000011471
     17        1           0.000336168   -0.000298976   -0.000001405
     18        1          -0.000229699   -0.000364583    0.000018377
     19        1          -0.000429750   -0.000023272    0.000013393
     20        1          -0.000096472    0.000451558   -0.000006209
     21        1          -0.000224384    0.000394468    0.000010382
     22        1           0.000096906   -0.000443136    0.000007921
     23        1          -0.000340451    0.000302579   -0.000009359
     24        1           0.000231332    0.000367393    0.000016209
 -------------------------------------------------------------------
 Cartesian Forces:  Max     0.002770409 RMS     0.001124872

 GradGradGradGradGradGradGradGradGradGradGradGradGradGradGradGradGradGrad
 Berny optimization.
 Using GEDIIS/GDIIS optimizer.
 FormGI is forming the generalized inverse of G from B-inverse, IUseBI=4.
 Internal  Forces:  Max     0.002060746 RMS     0.000521014
 Search for a local minimum.
 Step number   2 out of a maximum of  142
 All quantities printed in internal units (Hartrees-Bohrs-Radians)
 Mixed Optimization -- En-DIIS/RFO-DIIS
 Update second derivatives using D2CorX and points    1    2
 DE= -2.37D-03 DEPred=-2.43D-03 R= 9.78D-01
 TightC=F SS=  1.41D+00  RLast= 1.16D-01 DXNew= 5.0454D-01 3.4929D-01
 Trust test= 9.78D-01 RLast= 1.16D-01 DXMaxT set to 3.49D-01
 ITU=  1  0
 Use linear search instead of GDIIS.
     Eigenvalues ---    0.01754   0.01762   0.01770   0.01819   0.01820
     Eigenvalues ---    0.01906   0.01978   0.01979   0.02000   0.02009
     Eigenvalues ---    0.02100   0.02100   0.02101   0.02117   0.02117
     Eigenvalues ---    0.02151   0.02151   0.02224   0.02226   0.02347
     Eigenvalues ---    0.02349   0.15672   0.16000   0.16000   0.16000
     Eigenvalues ---    0.16000   0.16000   0.16000   0.16000   0.16000
     Eigenvalues ---    0.16004   0.22000   0.22000   0.22418   0.22573
     Eigenvalues ---    0.23207   0.23858   0.24468   0.24625   0.25000
     Eigenvalues ---    0.33106   0.33577   0.33629   0.33629   0.33631
     Eigenvalues ---    0.33632   0.33681   0.33682   0.33683   0.33698
     Eigenvalues ---    0.35843   0.38000   0.38560   0.38632   0.40071
     Eigenvalues ---    0.40234   0.41163   0.41792   0.43008   0.44955
     Eigenvalues ---    0.45768   0.48110   0.49866   0.49878   0.51249
     Eigenvalues ---    0.51340
 RFO step:  Lambda=-9.40307532D-05 EMin= 1.75427026D-02
 Quartic linear search produced a step of -0.01202.
 Iteration  1 RMS(Cart)=  0.00228893 RMS(Int)=  0.00000219
 Iteration  2 RMS(Cart)=  0.00000230 RMS(Int)=  0.00000010
 Iteration  3 RMS(Cart)=  0.00000000 RMS(Int)=  0.00000010
 Variable       Old X    -DE/DX   Delta X   Delta X   Delta X     New X
                                 (Linear)    (Quad)   (Total)
    R1        2.59404   0.00037  -0.00018   0.00119   0.00100   2.59505
    R2        2.70583  -0.00148  -0.00014  -0.00316  -0.00330   2.70253
    R3        2.05077   0.00009   0.00034  -0.00063  -0.00029   2.05047
    R4        2.71452  -0.00205  -0.00008  -0.00477  -0.00485   2.70967
    R5        2.05246   0.00020   0.00033  -0.00029   0.00004   2.05250
    R6        2.73312   0.00116  -0.00040   0.00386   0.00346   2.73658
    R7        2.65555  -0.00139  -0.00014  -0.00264  -0.00278   2.65277
    R8        2.71455  -0.00206  -0.00008  -0.00479  -0.00487   2.70967
    R9        2.65553  -0.00139  -0.00014  -0.00262  -0.00276   2.65277
   R10        2.59400   0.00039  -0.00018   0.00123   0.00104   2.59504
   R11        2.05246   0.00019   0.00033  -0.00029   0.00004   2.05250
   R12        2.05077   0.00009   0.00034  -0.00063  -0.00030   2.05047
   R13        2.65554  -0.00139  -0.00014  -0.00263  -0.00277   2.65277
   R14        2.05316   0.00045   0.00033   0.00047   0.00079   2.05395
   R15        2.65556  -0.00140  -0.00014  -0.00265  -0.00279   2.65277
   R16        2.05316   0.00045   0.00033   0.00047   0.00080   2.05395
   R17        2.73311   0.00117  -0.00040   0.00387   0.00348   2.73658
   R18        2.71450  -0.00205  -0.00008  -0.00475  -0.00484   2.70967
   R19        2.71451  -0.00205  -0.00008  -0.00476  -0.00485   2.70967
   R20        2.05246   0.00019   0.00033  -0.00029   0.00004   2.05250
   R21        2.59404   0.00038  -0.00018   0.00120   0.00102   2.59505
   R22        2.70581  -0.00147  -0.00014  -0.00314  -0.00328   2.70252
   R23        2.05077   0.00009   0.00034  -0.00063  -0.00030   2.05047
   R24        2.59405   0.00038  -0.00018   0.00119   0.00101   2.59505
   R25        2.05076   0.00009   0.00034  -0.00063  -0.00029   2.05047
   R26        2.05245   0.00020   0.00033  -0.00028   0.00004   2.05249
    A1        2.10199   0.00003   0.00000   0.00010   0.00010   2.10209
    A2        2.10308  -0.00047   0.00010  -0.00310  -0.00301   2.10007
    A3        2.07812   0.00044  -0.00010   0.00301   0.00291   2.08103
    A4        2.11086  -0.00001  -0.00004   0.00005   0.00001   2.11087
    A5        2.10895  -0.00039   0.00007  -0.00259  -0.00252   2.10643
    A6        2.06337   0.00040  -0.00003   0.00254   0.00251   2.06588
    A7        2.07034  -0.00002   0.00004  -0.00015  -0.00011   2.07023
    A8        2.13325   0.00007  -0.00011   0.00054   0.00043   2.13369
    A9        2.07960  -0.00005   0.00007  -0.00040  -0.00032   2.07927
   A10        2.07036  -0.00003   0.00003  -0.00016  -0.00013   2.07023
   A11        2.07960  -0.00004   0.00008  -0.00039  -0.00032   2.07928
   A12        2.13323   0.00007  -0.00011   0.00056   0.00045   2.13368
   A13        2.11087  -0.00001  -0.00004   0.00004   0.00000   2.11087
   A14        2.06336   0.00040  -0.00003   0.00254   0.00251   2.06587
   A15        2.10896  -0.00039   0.00007  -0.00258  -0.00251   2.10644
   A16        2.10196   0.00004   0.00000   0.00012   0.00012   2.10208
   A17        2.07803   0.00045  -0.00010   0.00309   0.00298   2.08101
   A18        2.10320  -0.00048   0.00010  -0.00321  -0.00311   2.10009
   A19        2.12399   0.00009  -0.00015   0.00079   0.00064   2.12464
   A20        2.07956  -0.00004   0.00007  -0.00036  -0.00029   2.07927
   A21        2.07963  -0.00005   0.00008  -0.00043  -0.00035   2.07928
   A22        2.12399   0.00009  -0.00015   0.00079   0.00064   2.12463
   A23        2.07955  -0.00004   0.00007  -0.00035  -0.00028   2.07927
   A24        2.07964  -0.00005   0.00008  -0.00044  -0.00037   2.07928
   A25        2.07959  -0.00004   0.00008  -0.00040  -0.00032   2.07927
   A26        2.13322   0.00007  -0.00011   0.00057   0.00046   2.13368
   A27        2.07037  -0.00003   0.00004  -0.00017  -0.00014   2.07024
   A28        2.07960  -0.00004   0.00008  -0.00040  -0.00032   2.07928
   A29        2.13325   0.00007  -0.00011   0.00054   0.00043   2.13368
   A30        2.07034  -0.00002   0.00003  -0.00014  -0.00011   2.07023
   A31        2.06338   0.00040  -0.00003   0.00254   0.00251   2.06588
   A32        2.11086  -0.00001  -0.00004   0.00005   0.00001   2.11087
   A33        2.10894  -0.00039   0.00007  -0.00258  -0.00251   2.10643
   A34        2.10198   0.00004   0.00000   0.00010   0.00010   2.10209
   A35        2.10311  -0.00047   0.00010  -0.00314  -0.00304   2.10007
   A36        2.07809   0.00044  -0.00010   0.00304   0.00293   2.08103
   A37        2.10196   0.00004   0.00000   0.00012   0.00012   2.10208
   A38        2.07809   0.00044  -0.00010   0.00304   0.00294   2.08103
   A39        2.10314  -0.00048   0.00010  -0.00316  -0.00306   2.10008
   A40        2.11086  -0.00001  -0.00004   0.00005   0.00001   2.11087
   A41        2.06335   0.00040  -0.00003   0.00256   0.00253   2.06588
   A42        2.10898  -0.00039   0.00007  -0.00261  -0.00254   2.10644
    D1        0.00022   0.00000   0.00003  -0.00024  -0.00021   0.00001
    D2       -3.14123  -0.00001  -0.00001  -0.00023  -0.00024  -3.14148
    D3       -3.14141   0.00000   0.00003  -0.00018  -0.00015  -3.14156
    D4        0.00033   0.00000  -0.00001  -0.00017  -0.00019   0.00014
    D5        0.00008   0.00000   0.00000  -0.00005  -0.00005   0.00003
    D6       -3.14154   0.00000  -0.00002   0.00008   0.00006  -3.14148
    D7       -3.14148   0.00000   0.00000  -0.00011  -0.00010  -3.14158
    D8        0.00008   0.00000  -0.00002   0.00002   0.00000   0.00009
    D9       -0.00037   0.00000  -0.00005   0.00039   0.00034  -0.00002
   D10        3.14073   0.00001  -0.00004   0.00084   0.00080   3.14153
   D11        3.14109   0.00001  -0.00001   0.00039   0.00038   3.14146
   D12       -0.00100   0.00002   0.00000   0.00083   0.00083  -0.00017
   D13        0.00023   0.00000   0.00004  -0.00027  -0.00023  -0.00001
   D14        3.14150   0.00000   0.00002   0.00006   0.00007   3.14158
   D15       -3.14089  -0.00001   0.00003  -0.00070  -0.00067  -3.14156
   D16        0.00039  -0.00001   0.00001  -0.00037  -0.00036   0.00003
   D17       -3.14112  -0.00001   0.00000  -0.00043  -0.00042  -3.14155
   D18        0.00043  -0.00001  -0.00001  -0.00030  -0.00031   0.00012
   D19       -0.00003   0.00000   0.00001   0.00002   0.00003   0.00001
   D20        3.14153   0.00000   0.00000   0.00014   0.00014  -3.14152
   D21        0.00006   0.00000  -0.00001  -0.00001  -0.00001   0.00005
   D22       -3.14135   0.00000   0.00000  -0.00021  -0.00021  -3.14156
   D23       -3.14121  -0.00001   0.00001  -0.00034  -0.00033  -3.14154
   D24        0.00057  -0.00001   0.00002  -0.00054  -0.00052   0.00005
   D25       -0.00032   0.00001  -0.00002   0.00029   0.00027  -0.00005
   D26        3.14117   0.00001   0.00000   0.00030   0.00031   3.14148
   D27        3.14095   0.00001  -0.00004   0.00063   0.00059   3.14154
   D28       -0.00075   0.00001  -0.00001   0.00064   0.00063  -0.00012
   D29       -0.00022   0.00000  -0.00001   0.00017   0.00016  -0.00006
   D30        3.14141   0.00000   0.00001   0.00004   0.00005   3.14145
   D31        3.14119   0.00001  -0.00002   0.00037   0.00035   3.14154
   D32       -0.00037   0.00001   0.00000   0.00025   0.00025  -0.00013
   D33       -0.00041   0.00001  -0.00003   0.00041   0.00039  -0.00002
   D34        3.14104   0.00001  -0.00001   0.00050   0.00048   3.14153
   D35        3.14123   0.00001  -0.00001   0.00029   0.00028   3.14151
   D36       -0.00051   0.00001   0.00000   0.00037   0.00037  -0.00013
   D37       -0.00011   0.00000   0.00000   0.00014   0.00015   0.00004
   D38       -3.14142   0.00000   0.00001  -0.00016  -0.00015  -3.14156
   D39        3.14158   0.00000  -0.00002   0.00013   0.00011  -3.14149
   D40        0.00028   0.00000  -0.00001  -0.00017  -0.00018   0.00010
   D41        0.00047  -0.00001   0.00002  -0.00049  -0.00048   0.00000
   D42       -3.14098  -0.00001   0.00001  -0.00057  -0.00057  -3.14155
   D43       -3.14140   0.00000   0.00001  -0.00020  -0.00019  -3.14159
   D44        0.00033  -0.00001   0.00000  -0.00028  -0.00029   0.00005
   D45        3.14103   0.00001  -0.00001   0.00053   0.00051   3.14155
   D46       -0.00071   0.00001  -0.00001   0.00066   0.00065  -0.00006
   D47       -0.00027   0.00000   0.00000   0.00022   0.00022  -0.00005
   D48        3.14117   0.00001   0.00000   0.00036   0.00036   3.14153
   D49       -0.00018   0.00000  -0.00002   0.00023   0.00021   0.00004
   D50        3.14150   0.00000   0.00000   0.00013   0.00013  -3.14155
   D51        3.14127   0.00001  -0.00001   0.00032   0.00031   3.14158
[...]
 343536,0.00233756,-0.00162129,0.13984205,0.00023185,-0.00032024,0.0000
 0197,0.00141278,0.00195186,0.00001448,-0.01359566,0.03012857,-0.000145
 94,-0.00463141,-0.00247199,-0.00003068,-0.00017580,0.00165112,-0.00000
 561,0.00009055,0.00007820,0.00000089,-0.13073389,0.11996736,-0.0006607
 7,-0.00048692,-0.00059392,0.00000027,-0.00143929,-0.00258649,-0.000018
 84,0.00997621,-0.01632462,0.00006433,0.00133120,-0.00139881,0.00002321
 ,-0.00003603,0.00057161,-0.00000275,0.00003832,0.00048102,-0.00000088,
 0.00030926,-0.00009976,0.00000213,0.00031211,-0.00072183,0.00000248,0.
 13795783,0.00037330,-0.00005116,0.00000130,-0.00144410,0.00102340,-0.0
 0001946,-0.00320428,0.00229300,-0.00000556,-0.00080975,0.00137615,0.00
 000954,-0.00045025,-0.00020513,-0.00000069,0.00002197,0.00032126,-0.00
 000137,0.11996709,-0.26428159,0.00104741,-0.00059393,0.00017424,-0.000
 00285,-0.00424875,-0.00181605,0.00000612,0.01700843,-0.02127996,0.0001
 3015,0.00199727,0.00110497,-0.00000753,-0.00128350,0.00037083,-0.00000
 456,-0.00021251,0.00014237,-0.00000135,-0.00004352,0.00010256,-0.00000
 101,0.00137955,-0.00069307,0.00000709,-0.12897061,0.28152913,-0.000000
 07,-0.00000112,-0.00007672,0.00002402,-0.00000709,-0.00418205,-0.00005
 544,0.00011215,0.00438842,-0.00003515,0.00000320,0.00588950,0.00000024
 ,0.00000680,0.00014312,0.00000100,-0.00000132,-0.00021353,-0.00066036,
 0.00104841,-0.03680980,0.00000070,-0.00000273,-0.00010520,-0.00001455,
 0.00001195,0.00588957,-0.00002703,0.00001121,0.00438899,0.00001399,-0.
 00001913,-0.00418206,0.00000235,0.00000182,0.00031244,0.00000099,0.000
 00091,-0.00007672,0.00000186,-0.00000115,-0.00021353,-0.00000315,-0.00
 000019,0.00014311,0.00075428,-0.00115954,0.02463152,-0.13140967,-0.121
 77408,-0.00000675,-0.01267433,-0.03140443,0.00002415,-0.00496271,0.002
 29829,-0.00005786,-0.00063461,0.00028342,-0.00000256,-0.00148298,0.003
 03535,-0.00002937,0.01103796,0.01762142,-0.00001862,0.00025850,-0.0014
 8815,0.00000368,0.00039111,0.00010121,0.00000411,-0.00019246,0.0000937
 7,-0.00000155,-0.00061057,-0.00005387,0.00000161,0.00012101,-0.0001364
 6,0.00000101,0.00000043,0.00001977,0.,-0.00007243,-0.00011195,-0.00000
 026,-0.00009800,0.00007350,-0.00000052,0.00008554,0.00007631,-0.000000
 15,-0.00002742,0.00005735,-0.00000130,0.13801449,-0.12284972,-0.270833
 37,0.00018584,0.00409575,0.00347834,0.00001697,0.00109300,0.00140882,0
 .00002521,0.00079086,0.00051609,0.00000111,0.00415675,-0.00252887,0.00
 003370,-0.01715342,-0.01911414,-0.00000216,-0.00000981,-0.00006382,0.0
 0000109,-0.00016904,0.00002267,-0.00000291,0.00009538,-0.00002620,0.00
 000087,-0.00003355,0.00012363,-0.00000314,0.00000136,-0.00005439,-0.00
 000001,-0.00001185,0.00001421,-0.00000012,-0.00004108,0.00003226,0.,0.
 00001498,-0.00001078,0.00000007,-0.00005591,0.00001645,-0.00000006,-0.
 00003952,0.00002374,0.00000056,0.13083788,0.28602573,-0.00000491,0.000
 18988,-0.03842528,-0.00007142,-0.00011141,0.00425870,-0.00005470,0.000
 02973,0.00927351,-0.00000419,-0.00000064,-0.00014500,-0.00003224,0.000
 02999,0.00436256,0.00007622,0.00012320,0.00294470,-0.00000022,-0.00000
 441,0.00035931,0.00000489,-0.00000187,-0.00082117,-0.00000160,0.000000
 89,0.00016780,0.00000127,-0.00000327,-0.00098724,0.00000068,-0.0000004
 9,-0.00005991,0.00000008,0.,-0.00001488,-0.00000045,-0.00000030,0.0000
 8514,-0.00000040,0.00000031,-0.00000526,0.00000025,0.00000042,0.000066
 56,-0.00000100,0.00000093,0.00028360,0.00005013,-0.00023129,0.02619400
 ,-0.01261845,0.03117208,-0.00014764,-0.13124879,0.12106977,-0.00067178
 ,0.00976137,-0.01649233,0.00006669,-0.00164851,-0.00258151,-0.00001475
 ,-0.00035726,-0.00063093,0.00000102,-0.00490703,-0.00207989,-0.0000432
 1,0.00139600,-0.00120923,0.00001895,0.00037419,-0.00078278,0.00000285,
 0.00029489,-0.00001788,0.00000171,0.00014391,0.00042693,-0.00000037,-0
 .00011342,0.00000245,-0.00000080,-0.00000950,-0.00001706,-0.00000006,0
 .00002440,0.00008529,-0.00000018,0.00006380,-0.00004077,0.00000042,-0.
 00004636,-0.00004624,-0.00000009,-0.00002792,0.00056710,-0.00000278,0.
 00103664,-0.00042214,0.00002451,0.13857800,-0.00443972,0.00345748,-0.0
 0001290,0.12194205,-0.26678212,0.00107221,0.01665388,-0.02088509,0.000
 12777,-0.00423529,-0.00183134,0.00000214,-0.00077890,0.00022205,-0.000
 00383,-0.00061081,0.00154474,0.00001709,0.00196906,0.00111156,-0.00000
 426,0.00139191,-0.00070792,0.00000726,0.00002164,0.00014370,-0.0000007
 6,-0.00042029,0.00026698,-0.00000246,0.00007671,-0.00007495,0.00000077
 ,-0.00003492,0.00001943,-0.00000012,0.00003073,-0.00009506,0.00000039,
 -0.00010975,-0.00005612,-0.00000030,-0.00005156,0.00014656,-0.00000053
 ,-0.00128800,0.00036272,-0.00000465,0.00045860,0.00103177,-0.00001603,
 -0.13040750,0.28256717,-0.00005003,0.00011588,0.00459759,-0.00067442,0
 .00107038,-0.03785064,-0.00002440,0.00000707,0.00380801,-0.00001029,0.
 00000767,0.00440954,0.00000167,-0.00000334,-0.00015730,-0.00004688,0.0
 0001111,0.00852540,0.00001021,-0.00001524,-0.00295253,-0.00000297,-0.0
 0000043,0.00015159,0.00000150,-0.00000088,-0.00016458,0.00000188,0.000
 00038,-0.00007541,-0.00000094,0.00000055,0.00010843,0.,-0.00000006,0.0
 0001991,-0.00000003,0.00000054,0.00000935,0.00000058,-0.00000003,-0.00
 002285,-0.00000005,-0.00000052,0.00001285,0.00000238,0.00000188,0.0003
 1244,0.00002205,-0.00001896,-0.00539173,0.00076849,-0.00117987,0.02557
 476,-0.00112461,-0.00271611,-0.00002748,-0.00051408,-0.00069161,0.0000
 0059,-0.00468480,-0.00254527,-0.00002567,-0.01356738,0.02963885,-0.000
 14268,-0.13145496,0.12205708,-0.00066572,0.01101487,-0.01759420,0.0000
 7064,-0.00019310,0.00170768,-0.00000592,0.00150168,0.00191023,0.000010
 86,0.00024069,-0.00047415,0.00000243,0.00018105,0.00008500,0.00000099,
 0.00005937,-0.00011041,0.00000046,0.00002787,0.00000030,0.00000002,-0.
 00009172,-0.00002318,-0.00000017,-0.00001750,0.00005405,-0.00000024,-0
 .00005040,0.00004164,-0.00000069,-0.00049690,0.00003102,-0.00000280,0.
 00037659,-0.00073918,0.00000242,0.00011752,0.00016424,0.00000527,0.137
 67424,-0.00418522,-0.00223773,0.00001372,-0.00054365,0.00037888,-0.000
 00342,-0.00089149,0.00120499,0.00000533,-0.00350742,0.00244406,-0.0000
 0897,0.12118486,-0.26657671,0.00105184,0.01801757,-0.02017609,0.000131
 88,-0.00046702,-0.00014060,-0.00000086,-0.00126802,0.00100589,-0.00001
 519,0.00037306,0.00017020,0.00000066,0.00004549,0.00025754,-0.00000098
 ,-0.00010509,0.00004083,-0.00000044,0.00000030,-0.00002649,0.00000013,
 0.00004579,0.00009940,-0.00000017,0.00010861,-0.00005316,0.00000055,-0
 .00003262,-0.00013796,0.00000054,0.00002239,-0.00000624,0.00000083,0.0
 0078571,-0.00108444,0.00000656,0.00016042,-0.00006316,-0.00000319,-0.1
 2990474,0.28347156,-0.00002370,0.00001925,0.00852545,-0.00000006,-0.00
 000393,-0.00015730,-0.00003030,-0.00000013,0.00440949,-0.00005306,0.00
 011054,0.00380764,-0.00066337,0.00105432,-0.03785031,-0.00002528,0.000
 00380,0.00459791,-0.00000005,0.00000695,0.00015158,0.00001943,-0.00000
 384,-0.00295253,0.00000012,-0.00000237,-0.00007541,0.00000114,-0.00000
 081,-0.00016458,0.00000044,-0.00000047,0.00001285,0.00000002,0.0000001
 3,0.00002195,-0.00000037,-0.00000041,-0.00002285,-0.00000039,0.0000003
 6,0.00000935,-0.00000047,0.00000082,0.00010844,-0.00000282,0.00000085,
 0.00026950,-0.00000172,0.00000096,0.00027540,0.00000533,-0.00000330,-0
 .00146970,0.00075343,-0.00116192,0.02557448,-0.01178251,-0.00445114,-0
 .00004130,0.00077490,0.00289997,-0.00002100,0.00070042,0.00004775,0.00
 000295,0.00134294,-0.00241688,-0.00002239,-0.01194753,0.00369083,-0.00
 006868,-0.34180481,-0.00573936,-0.00108588,0.00008099,0.00000359,0.000
 00326,-0.00062414,0.00048148,-0.00000485,-0.00008721,-0.00032487,0.000
 00416,0.00001485,-0.00002002,-0.00000051,0.00004146,-0.00003138,-0.000
 00001,-0.00000169,0.00001541,-0.00000006,0.00000619,-0.00004301,0.0000
 0016,-0.00005754,-0.00004937,-0.00000038,-0.00007031,0.00010785,-0.000
 00031,0.00000294,0.00002166,-0.00000020,0.00087909,0.00042378,0.000011
 00,-0.00071906,-0.00012932,-0.00000325,0.00104837,-0.00042863,0.000024
 55,0.36221172,0.03032339,0.00370750,0.00010780,0.00177859,-0.00478677,
 0.00003138,-0.00045966,-0.00081897,0.00000017,-0.00121157,-0.00489703,
 0.00003387,-0.03180964,0.00275081,-0.00011115,-0.00466313,-0.06043461,
 0.00004242,0.00027382,0.00033281,-0.00000214,-0.00099688,0.00081883,-0
 .00000480,-0.00034519,-0.00039975,-0.00000281,-0.00002162,-0.00023351,
 0.00000101,0.00010084,0.00006053,0.00000037,-0.00001304,0.00000473,-0.
 00000005,0.00001551,-0.00011497,0.00000035,-0.00012024,0.00001737,-0.0
 0000024,-0.00002997,0.00013693,-0.00000064,-0.00008611,0.00002401,-0.0
 0000026,-0.00064838,0.00100420,-0.00001177,0.00139557,0.00001125,0.000
 00576,0.00045205,0.00102006,-0.00001570,0.00604542,0.06182462,-0.00013
 570,-0.00001788,0.00294408,-0.00001755,0.00003542,0.00436257,0.0000043
 6,0.00000182,-0.00014497,-0.00002524,0.00002938,0.00927361,0.00002764,
 0.00001794,0.00425886,-0.00108926,0.00003790,-0.03842871,0.00000248,-0
 .00000309,-0.00082117,-0.00000086,0.00000059,0.00035928,0.00000403,-0.
 00000277,-0.00098723,-0.00000050,0.00000096,0.00016780,-0.00000033,-0.
 00000008,0.00006656,0.00000002,0.00000005,0.00000289,0.,0.00000011,-0.
 00000526,-0.00000021,0.00000001,0.00008514,0.00000006,-0.00000012,-0.0
 0005991,0.00000010,0.00000012,0.00004180,0.00001385,-0.00000785,-0.002
 46051,-0.00000735,0.00000028,0.00027540,0.00002200,-0.00001878,-0.0053
 9170,0.00120347,-0.00007444,0.02619774,0.00030925,-0.00009976,0.000002
 14,0.00031212,-0.00072183,0.00000263,-0.00143933,-0.00258649,-0.000019
 10,0.00997632,-0.01632463,0.00006392,0.00133121,-0.00139867,0.00002340
 ,0.00003833,0.00048102,-0.00000091,-0.00048693,-0.00059393,0.00000024,
 -0.13073123,0.11996558,-0.00065610,-0.01359616,0.03012905,-0.00014510,
 -0.00463147,-0.00247195,-0.00003061,-0.00017580,0.00165113,-0.00000557
 ,-0.00049690,0.00002239,-0.00000275,0.00009056,0.00007820,0.00000086,0
 .00023186,-0.00032023,0.00000195,0.00141274,0.00195186,0.00001465,0.00
 007692,0.00018052,0.00000486,-0.00000836,0.00002795,-0.00000025,-0.000
 09959,-0.00019012,-0.00000079,-0.00003603,0.00057161,-0.00000277,0.000
 01922,0.00003139,-0.00000102,0.13795565,-0.00004353,0.00010255,-0.0000
 0102,0.00137954,-0.00069305,0.00000729,-0.00424872,-0.00181599,0.00000
 544,0.01700820,-0.02127928,0.00012976,0.00199726,0.00110498,-0.0000069
 9,-0.00021252,0.00014236,-0.00000133,-0.00059392,0.00017425,-0.0000029
 0,0.11996595,-0.26428441,0.00103711,-0.00320408,0.00229269,-0.00000576
 ,-0.00080971,0.00137617,0.00000920,-0.00045025,-0.00020514,-0.00000063
 ,0.00003103,-0.00000624,0.00000087,0.00002198,0.00032126,-0.00000137,0
 .00037329,-0.00005117,0.00000123,-0.00144417,0.00102344,-0.00001908,0.
 00018052,-0.00012402,-0.00000285,-0.00007982,0.00003531,-0.00000028,-0
 .00019875,-0.00040355,0.00000112,-0.00128348,0.00037082,-0.00000481,-0
 .00006548,-0.00002290,0.00000058,-0.12896947,0.28153145,0.00000210,-0.
 00000130,-0.00021353,-0.00000317,-0.00000037,0.00014313,-0.00001421,0.
 00001147,0.00588955,-0.00002559,0.00001264,0.00438878,0.00001427,-0.00
 001949,-0.00418205,0.00000099,0.00000135,-0.00007672,-0.00000023,-0.00
 000311,-0.00010520,-0.00065646,0.00103563,-0.03680971,-0.00005475,0.00
 011286,0.00438865,-0.00003525,0.00000387,0.00588953,-0.00000007,0.0000
 0685,0.00014311,-0.00000282,0.00000080,0.00026950,0.00000103,-0.000001
 04,-0.00021353,0.00000020,-0.00000126,-0.00007672,0.00002363,-0.000007
 14,-0.00418207,0.00000485,-0.00000295,-0.00142932,0.00000003,0.0000001
 2,0.00004180,-0.00000081,0.00000115,0.00026951,0.00000218,0.00000188,0
 .00031244,-0.00000079,0.00000094,0.00028360,0.00074903,-0.00114847,0.0
 2463142,-0.00005754,-0.00004937,-0.00000037,-0.00007031,0.00010785,-0.
 00000034,-0.00008720,-0.00032487,0.00000405,0.00001485,-0.00002002,-0.
 00000048,0.00004146,-0.00003138,0.,0.00000619,-0.00004301,0.00000016,-
 0.00062413,0.00048148,-0.00000476,0.00008099,0.00000358,0.00000316,0.0
 0070041,0.00004776,0.00000283,0.00134295,-0.00241685,-0.00002133,-0.01
 194729,0.00369089,-0.00006675,0.00104836,-0.00042864,0.00002375,-0.341
 80516,-0.00574035,-0.00104886,-0.01178276,-0.00445108,-0.00003968,0.00
 077489,0.00289998,-0.00002032,0.00001922,-0.00006548,-0.00000075,-0.00
 002148,-0.00001403,-0.00000010,0.00001431,-0.00001958,0.00000016,-0.00
 000169,0.00001540,-0.00000006,-0.00002114,-0.00000467,0.00000001,0.000
 00294,0.00002166,-0.00000019,0.36221210,-0.00012024,0.00001737,-0.0000
 0025,-0.00002997,0.00013693,-0.00000065,-0.00034519,-0.00039975,-0.000
 00280,-0.00002163,-0.00023351,0.00000102,0.00010084,0.00006053,0.00000
 038,0.00001551,-0.00011497,0.00000036,-0.00099687,0.00081883,-0.000004
 72,0.00027383,0.00033281,-0.00000215,-0.00045967,-0.00081896,0.0000001
 9,-0.00121155,-0.00489701,0.00003401,-0.03180945,0.00275092,-0.0001073
 1,0.00045206,0.00102007,-0.00001570,-0.00466434,-0.06043464,0.00004273
 ,0.03032359,0.00370743,0.00010423,0.00177858,-0.00478676,0.00003074,0.
 00003139,-0.00002290,0.00000093,-0.00001853,-0.00000335,-0.00000001,0.
 00001204,0.00000032,0.,-0.00001304,0.00000473,-0.00000005,-0.00000467,
 -0.00000211,-0.00000007,-0.00008611,0.00002401,-0.00000026,0.00604625,
 0.06182458,-0.00000018,0.00000001,0.00008514,0.00000004,-0.00000015,-0
 .00005991,0.00000413,-0.00000276,-0.00098723,-0.00000047,0.00000100,0.
 00016780,-0.00000038,-0.00000010,0.00006656,0.,0.00000015,-0.00000526,
 -0.00000074,0.00000054,0.00035928,0.00000248,-0.00000312,-0.00082117,0
 .00000417,0.00000196,-0.00014497,-0.00002478,0.00002979,0.00927361,0.0
 0002978,0.00001744,0.00425880,0.00002122,-0.00001868,-0.00539171,-0.00
 105290,0.00003871,-0.03842846,-0.00013271,-0.00001778,0.00294419,-0.00
 001738,0.00003461,0.00436259,-0.00000103,0.00000061,0.00028360,-0.0000
 0009,0.,0.00001636,0.00000007,-0.00000011,-0.00001488,0.00000002,0.000
 00005,0.00000289,0.00000001,-0.00000007,-0.00002133,0.00000009,0.00000
 013,0.00004180,0.00116247,-0.00007468,0.02619744,-0.00009800,0.0000735
 0,-0.00000053,0.00008554,0.00007631,-0.00000013,-0.00019246,0.00009377
 ,-0.00000153,-0.00061057,-0.00005387,0.00000140,0.00012101,-0.00013646
 ,0.00000102,-0.00007242,-0.00011195,-0.00000025,0.00039112,0.00010120,
 0.00000398,0.00025851,-0.00148816,0.00000367,-0.00496278,0.00229829,-0
 .00005605,-0.00063462,0.00028343,-0.00000247,-0.00148301,0.00303536,-0
 .00002857,0.00037659,0.00078571,-0.00000178,0.01103799,0.01762135,-0.0
 0001904,-0.13140818,-0.12177280,0.00000281,-0.01267468,-0.03140468,0.0
 0002504,-0.00000836,-0.00007982,0.00000004,-0.00001058,-0.00001055,0.0
 0000006,0.00000422,-0.00001633,0.00000005,0.00000043,0.00001977,0.,-0.
 00002148,-0.00001853,-0.00000009,-0.00002742,0.00005735,-0.00000123,0.
 00087910,-0.00064840,0.00001341,0.13801341,0.00001498,-0.00001078,0.00
 000007,-0.00005591,0.00001646,-0.00000007,0.00009537,-0.00002620,0.000
 00086,-0.00003356,0.00012363,-0.00000311,0.00000136,-0.00005439,-0.000
 00001,-0.00004108,0.00003226,0.,-0.00016904,0.00002267,-0.00000286,-0.
 00000981,-0.00006382,0.00000112,0.00109298,0.00140882,0.00002510,0.000
 79086,0.00051609,0.00000097,0.00415675,-0.00252885,0.00003303,-0.00073
 918,-0.00108444,0.00000111,-0.01715331,-0.01911372,-0.00000071,-0.1228
 4886,-0.27083434,0.00019584,0.00409570,0.00347816,0.00001649,0.0000279
 5,0.00003531,0.00000011,-0.00001055,-0.00001268,-0.00000006,0.00001212
 ,-0.00000117,0.00000005,-0.00001185,0.00001421,-0.00000012,-0.00001403
 ,-0.00000335,0.,-0.00003952,0.00002374,0.00000056,0.00042377,0.0010041
 8,-0.00000782,0.13083695,0.28602639,-0.00000035,0.00000026,-0.00000526
 ,0.00000021,0.00000040,0.00006656,-0.00000153,0.00000085,0.00016780,0.
 00000152,-0.00000317,-0.00098724,0.00000061,-0.00000051,-0.00005991,-0
 .00000045,-0.00000022,0.00008514,0.00000471,-0.00000195,-0.00082116,-0
 .00000038,-0.00000398,0.00035929,-0.00005282,0.00002931,0.00927351,-0.
 00000370,-0.00000087,-0.00014500,-0.00003165,0.00002903,0.00436255,0.0
 0000234,0.00000640,0.00027541,0.00007426,0.00012082,0.00294456,0.00000
 664,0.00020023,-0.03842527,-0.00007130,-0.00010831,0.00425880,-0.00000
 025,-0.00000025,0.00004179,0.00000007,-0.00000006,-0.00002133,-0.00000
 003,-0.00000004,0.00000289,0.00000009,0.,-0.00001488,-0.00000010,-0.00
 000001,0.00001636,-0.00000099,0.00000090,0.00028361,0.00001056,-0.0000
 1155,-0.00246051,0.00003893,-0.00024177,0.02619403,0.00006380,-0.00004
 077,0.00000042,-0.00004636,-0.00004624,-0.00000008,0.00029489,-0.00001
 788,0.00000166,0.00014391,0.00042692,-0.00000039,-0.00011342,0.0000024
 5,-0.00000079,0.00002440,0.00008529,-0.00000018,0.00037420,-0.00078279
 ,0.00000297,0.00139603,-0.00120917,0.00001855,0.00976140,-0.01649236,0
 .00006503,-0.00164854,-0.00258151,-0.00001440,-0.00035727,-0.00063094,
 0.00000098,0.00011752,0.00016042,0.00000512,-0.00490704,-0.00207988,-0
 .00004144,-0.01261852,0.03117222,-0.00014372,-0.13124740,0.12106885,-0
 .00064975,-0.00009959,-0.00019876,-0.00000073,0.00000422,0.00001212,-0
 .00000003,-0.00001338,0.00002326,-0.00000019,-0.00000950,-0.00001706,-
 0.00000006,0.00001431,0.00001204,0.00000007,-0.00002792,0.00056711,-0.
 00000271,-0.00071907,0.00139557,-0.00000723,0.00103663,-0.00042210,0.0
 0002363,0.13857667,-0.00010975,-0.00005612,-0.00000030,-0.00005156,0.0
 0014656,-0.00000056,0.00002163,0.00014369,-0.00000075,-0.00042029,0.00
 026698,-0.00000238,0.00007671,-0.00007495,0.00000077,0.00003073,-0.000
 09506,0.00000040,0.00139192,-0.00070791,0.00000727,0.00196906,0.001111
 56,-0.00000381,0.01665376,-0.02088487,0.00012457,-0.00423529,-0.001831
 33,0.00000158,-0.00077890,0.00022206,-0.00000375,0.00016424,-0.0000631
 6,-0.00000316,-0.00061077,0.00154475,0.00001638,-0.00443969,0.00345730
 ,-0.00001259,0.12194142,-0.26678357,0.00103689,-0.00019012,-0.00040355
 ,0.00000116,-0.00001633,-0.00000117,-0.00000005,0.00002326,0.00001475,
 0.00000010,-0.00003492,0.00001943,-0.00000013,-0.00001958,0.00000032,-
 0.00000011,-0.00128801,0.00036272,-0.00000475,-0.00012932,0.00001124,0
 .00000024,0.00045857,0.00103181,-0.00001548,-0.13040679,0.28256852,0.0
 0000063,-0.00000007,-0.00002285,-0.00000009,-0.00000053,0.00001285,0.0
 0000166,-0.00000091,-0.00016457,0.00000196,0.00000077,-0.00007541,-0.0
 0000105,0.00000047,0.00010843,-0.00000003,0.00000062,0.00000935,-0.000
 00300,-0.00000051,0.00015159,0.00000999,-0.00001536,-0.00295251,-0.000
 02328,0.00000926,0.00380795,-0.00000966,0.00000763,0.00440952,0.000001
 11,-0.00000334,-0.00015730,0.00000509,-0.00000321,-0.00146970,-0.00004
 556,0.00001170,0.00852541,-0.00004864,0.00011256,0.00459763,-0.0006518
 9,0.00103256,-0.03785023,-0.00000081,0.00000112,0.00026950,0.00000005,
 0.00000005,0.00000289,-0.00000019,0.00000010,0.00002195,-0.00000001,-0
 .00000006,0.00001991,0.00000016,0.,-0.00001488,0.00000219,0.00000188,0
 .00031244,-0.00000316,0.00000561,0.00027539,0.00002128,-0.00001880,-0.
 00539173,0.00074328,-0.00114154,0.02557437\\0.00002236,-0.00000237,0.0
 0000019,-0.00004015,0.00005348,-0.00000170,0.00003442,-0.00002887,0.00
 000252,-0.00000889,0.00004381,0.00000066,0.00002704,-0.00005940,-0.000
 00092,0.00000815,0.00001691,0.00000013,-0.00004935,0.00008125,-0.00000
 244,0.00004768,-0.00008267,-0.00000294,-0.00003572,0.00002972,0.,0.000
 00956,-0.00004409,0.00000102,-0.00002701,0.00005974,0.00000091,-0.0000
 0764,0.00000928,-0.00000145,-0.00000804,-0.00001890,-0.00000248,-0.000
 02120,0.00000176,0.00000156,0.00003999,-0.00005289,-0.00000096,-0.0000
 0152,0.00000400,0.00000105,-0.00002133,0.00000572,-0.00000090,-0.00000
 419,0.00001122,0.00000210,0.00000793,-0.00000913,0.00000116,-0.0000054
 5,-0.00001980,-0.00000082,0.00000289,-0.00000321,0.00000144,0.00000542
 ,0.00002050,0.00000106,0.00002058,-0.00000512,-0.00000104,0.00000446,-
 0.00001093,0.00000185\\\@


 ALL SCIENCE IS EITHER PHYSICS, OR STAMP COLLECTING.
   --ERNEST RUTHERFORD, 1871-1937.
 Job cpu time:       0 days  0 hours 23 minutes 10.8 seconds.
 Elapsed time:       0 days  0 hours  5 minutes 48.0 seconds.
 File lengths (MBytes):  RWF=     79 Int=      0 D2E=      0 Chk=      3 Scr=      1
 Normal termination of Gaussian 16 at Sat Jun 20 13:43:57 2020.
