 Entering Gaussian System, Link 0=g16
 Input=benzene_opt.gjf
 Output=benzene_opt.log
 Initial command:
 /home/qingchun/software/g16A_modified_by_qingchun/g16/l1.exe "/scratch/qingchun/gaussian/Gau-24726.inp" -scrdir="/scratch/qingchun/gaussian/"
 Entering Link 1 = /home/qingchun/software/g16A_modified_by_qingchun/g16/l1.exe PID=     24727.
  
 Copyright (c) 1988,1990,1992,1993,1995,1998,2003,2009,2016,
            Gaussian, Inc.  All Rights Reserved.
  
 This is part of the Gaussian(R) 16 program.  It is based on
 the Gaussian(R) 09 system (copyright 2009, Gaussian, Inc.),
 the Gaussian(R) 03 system (copyright 2003, Gaussian, Inc.),
 the Gaussian(R) 98 system (copyright 1998, Gaussian, Inc.),
 the Gaussian(R) 94 system (copyright 1995, Gaussian, Inc.),
 the Gaussian 92(TM) system (copyright 1992, Gaussian, Inc.),
 the Gaussian 90(TM) system (copyright 1990, Gaussian, Inc.),
 the Gaussian 88(TM) system (copyright 1988, Gaussian, Inc.),
 the Gaussian 86(TM) system (copyright 1986, Carnegie Mellon
 University), and the Gaussian 82(TM) system (copyright 1983,
 Carnegie Mellon University). Gaussian is a federally registered
 trademark of Gaussian, Inc.
  
 This software contains proprietary and confidential information,
 including trade secrets, belonging to Gaussian, Inc.
  
 This software is provided under written license and may be
 used, copied, transmitted, or stored only in accord with that
 written license.
  
 The following legend is applicable only to US Government
 contracts under FAR:
  
                    RESTRICTED RIGHTS LEGEND
  
 Use, reproduction and disclosure by the US Government is
 subject to restrictions as set forth in subparagraphs (a)
 and (c) of the Commercial Computer Software - Restricted
 Rights clause in FAR 52.227-19.
  
 Gaussian, Inc.
 340 Quinnipiac St., Bldg. 40, Wallingford CT 06492
  
  
 ---------------------------------------------------------------
 Warning -- This program may not be used in any manner that
 competes with the business of Gaussian, Inc. or will provide
 assistance to any competitor of Gaussian, Inc.  The licensee
 of this program is prohibited from giving any competitor of
 Gaussian, Inc. access to this program.  By using this program,
 the user acknowledges that Gaussian, Inc. is engaged in the
 business of creating and licensing software in the field of
 computational chemistry and represents and warrants to the
 licensee that it is not a competitor of Gaussian, Inc. and that
 it will not use this program in any manner prohibited above.
 ---------------------------------------------------------------
  

 Cite this work as:
 Gaussian 16, Revision A.03,
 M. J. Frisch, G. W. Trucks, H. B. Schlegel, G. E. Scuseria, 
 M. A. Robb, J. R. Cheeseman, G. Scalmani, V. Barone, 
 G. A. Petersson, H. Nakatsuji, X. Li, M. Caricato, A. V. Marenich, 
 J. Bloino, B. G. Janesko, R. Gomperts, B. Mennucci, H. P. Hratchian, 
 J. V. Ortiz, A. F. Izmaylov, J. L. Sonnenberg, D. Williams-Young, 
 F. Ding, F. Lipparini, F. Egidi, J. Goings, B. Peng, A. Petrone, 
 T. Henderson, D. Ranasinghe, V. G. Zakrzewski, J. Gao, N. Rega, 
 G. Zheng, W. Liang, M. Hada, M. Ehara, K. Toyota, R. Fukuda, 
 J. Hasegawa, M. Ishida, T. Nakajima, Y. Honda, O. Kitao, H. Nakai, 
 T. Vreven, K. Throssell, J. A. Montgomery, Jr., J. E. Peralta, 
 F. Ogliaro, M. J. Bearpark, J. J. Heyd, E. N. Brothers, K. N. Kudin, 
 V. N. Staroverov, T. A. Keith, R. Kobayashi, J. Normand, 
 K. Raghavachari, A. P. Rendell, J. C. Burant, S. S. Iyengar, 
 J. Tomasi, M. Cossi, J. M. Millam, M. Klene, C. Adamo, R. Cammi, 
 J. W. Ochterski, R. L. Martin, K. Morokuma, O. Farkas, 
 J. B. Foresman, and D. J. Fox, Gaussian, Inc., Wallingford CT, 2016.
 
 ******************************************
 Gaussian 16:  ES64L-G16RevA.03 25-Dec-2016
                21-Jun-2020 
 ******************************************
 %nprocshared=8
 Will use up to    8 processors via shared memory.
 %mem=30GB
 %chk=benzene.chk
 ----------------------
 # opt freq b3lyp/6-31G
 ----------------------
 1/18=20,19=15,26=3,38=1/1,3;
 2/9=110,12=2,17=6,18=5,40=1/2;
 3/5=1,6=6,11=2,25=1,30=1,71=1,74=-5/1,2,3;
 4//1;
 5/5=2,38=5/2;
 6/7=2,8=2,9=2,10=2,28=1/1;
 7//1,2,3,16;
 1/18=20,19=15,26=3/3(2);
 2/9=110/2;
 99//99;
 2/9=110/2;
 3/5=1,6=6,11=2,25=1,30=1,71=1,74=-5/1,2,3;
 4/5=5,16=3,69=1/1;
 5/5=2,38=5/2;
 7//1,2,3,16;
 1/18=20,19=15,26=3/3(-5);
 2/9=110/2;
 6/7=2,8=2,9=2,10=2,19=2,28=1/1;
 99/9=1/99;
 -----
 6-31G
 -----
 Symbolic Z-matrix:
 Charge =  0 Multiplicity = 1
 C                    -1.33191  -0.42799   0. 
 C                    -0.29519  -1.36745   0.0001 
 C                     1.03659  -0.93947  -0.00008 
 C                     1.33187   0.4281    0.00001 
 C                     0.2953    1.36742   0.00008 
 C                    -1.03667   0.93938  -0.00008 
 H                    -2.37202  -0.76235  -0.00007 
 H                    -0.52591  -2.43535   0.00007 
 H                     1.84624  -1.673    -0.00018 
 H                     2.37207   0.76219  -0.00001 
 H                     0.52577   2.43537   0.00004 
 H                    -1.84615   1.67313  -0.00007 
 

 GradGradGradGradGradGradGradGradGradGradGradGradGradGradGradGradGradGrad
 Berny optimization.
 Initialization pass.
                           ----------------------------
                           !    Initial Parameters    !
                           ! (Angstroms and Degrees)  !
 --------------------------                            --------------------------
 ! Name  Definition              Value          Derivative Info.                !
 --------------------------------------------------------------------------------
 ! R1    R(1,2)                  1.3991         estimate D2E/DX2                !
 ! R2    R(1,6)                  1.3989         estimate D2E/DX2                !
 ! R3    R(1,7)                  1.0925         estimate D2E/DX2                !
 ! R4    R(2,3)                  1.3989         estimate D2E/DX2                !
 ! R5    R(2,8)                  1.0925         estimate D2E/DX2                !
 ! R6    R(3,4)                  1.3991         estimate D2E/DX2                !
 ! R7    R(3,9)                  1.0925         estimate D2E/DX2                !
 ! R8    R(4,5)                  1.3989         estimate D2E/DX2                !
 ! R9    R(4,10)                 1.0925         estimate D2E/DX2                !
 ! R10   R(5,6)                  1.3991         estimate D2E/DX2                !
 ! R11   R(5,11)                 1.0925         estimate D2E/DX2                !
 ! R12   R(6,12)                 1.0925         estimate D2E/DX2                !
 ! A1    A(2,1,6)              119.9981         estimate D2E/DX2                !
 ! A2    A(2,1,7)              119.9968         estimate D2E/DX2                !
 ! A3    A(6,1,7)              120.0051         estimate D2E/DX2                !
 ! A4    A(1,2,3)              120.0022         estimate D2E/DX2                !
 ! A5    A(1,2,8)              119.991          estimate D2E/DX2                !
 ! A6    A(3,2,8)              120.0068         estimate D2E/DX2                !
 ! A7    A(2,3,4)              119.9997         estimate D2E/DX2                !
 ! A8    A(2,3,9)              120.0084         estimate D2E/DX2                !
 ! A9    A(4,3,9)              119.9919         estimate D2E/DX2                !
 ! A10   A(3,4,5)              119.9981         estimate D2E/DX2                !
 ! A11   A(3,4,10)             119.9904         estimate D2E/DX2                !
 ! A12   A(5,4,10)             120.0115         estimate D2E/DX2                !
 ! A13   A(4,5,6)              120.0025         estimate D2E/DX2                !
 ! A14   A(4,5,11)             120.0045         estimate D2E/DX2                !
 ! A15   A(6,5,11)             119.993          estimate D2E/DX2                !
 ! A16   A(1,6,5)              119.9995         estimate D2E/DX2                !
 ! A17   A(1,6,12)             120.006          estimate D2E/DX2                !
 ! A18   A(5,6,12)             119.9946         estimate D2E/DX2                !
 ! D1    D(6,1,2,3)             -0.0091         estimate D2E/DX2                !
 ! D2    D(6,1,2,8)           -179.9944         estimate D2E/DX2                !
 ! D3    D(7,1,2,3)            179.9875         estimate D2E/DX2                !
 ! D4    D(7,1,2,8)              0.0021         estimate D2E/DX2                !
 ! D5    D(2,1,6,5)             -0.0064         estimate D2E/DX2                !
 ! D6    D(2,1,6,12)          -179.9953         estimate D2E/DX2                !
 ! D7    D(7,1,6,5)            179.997          estimate D2E/DX2                !
 ! D8    D(7,1,6,12)             0.0082         estimate D2E/DX2                !
 ! D9    D(1,2,3,4)              0.0171         estimate D2E/DX2                !
 ! D10   D(1,2,3,9)           -179.9892         estimate D2E/DX2                !
 ! D11   D(8,2,3,4)           -179.9975         estimate D2E/DX2                !
 ! D12   D(8,2,3,9)             -0.0039         estimate D2E/DX2                !
 ! D13   D(2,3,4,5)             -0.0096         estimate D2E/DX2                !
 ! D14   D(2,3,4,10)           179.9929         estimate D2E/DX2                !
 ! D15   D(9,3,4,5)            179.9967         estimate D2E/DX2                !
 ! D16   D(9,3,4,10)            -0.0008         estimate D2E/DX2                !
 ! D17   D(3,4,5,6)             -0.0059         estimate D2E/DX2                !
 ! D18   D(3,4,5,11)          -179.9932         estimate D2E/DX2                !
 ! D19   D(10,4,5,6)           179.9916         estimate D2E/DX2                !
 ! D20   D(10,4,5,11)            0.0043         estimate D2E/DX2                !
 ! D21   D(4,5,6,1)              0.0139         estimate D2E/DX2                !
 ! D22   D(4,5,6,12)          -179.9972         estimate D2E/DX2                !
 ! D23   D(11,5,6,1)          -179.9987         estimate D2E/DX2                !
 ! D24   D(11,5,6,12)           -0.0099         estimate D2E/DX2                !
 --------------------------------------------------------------------------------
 Trust Radius=3.00D-01 FncErr=1.00D-07 GrdErr=1.00D-06 EigMax=2.50D+02 EigMin=1.00D-04
 Number of steps in this run=     64 maximum allowed number of steps=    100.
 GradGradGradGradGradGradGradGradGradGradGradGradGradGradGradGradGradGrad

                          Input orientation:                          
 ---------------------------------------------------------------------
 Center     Atomic      Atomic             Coordinates (Angstroms)
 Number     Number       Type             X           Y           Z
 ---------------------------------------------------------------------
      1          6           0       -1.331910   -0.427990    0.000002
      2          6           0       -0.295191   -1.367449    0.000098
      3          6           0        1.036590   -0.939465   -0.000077
      4          6           0        1.331874    0.428100    0.000014
      5          6           0        0.295304    1.367422    0.000076
      6          6           0       -1.036666    0.939384   -0.000077
      7          1           0       -2.372022   -0.762350   -0.000068
      8          1           0       -0.525912   -2.435352    0.000068
      9          1           0        1.846244   -1.673001   -0.000180
     10          1           0        2.372065    0.762193   -0.000005
     11          1           0        0.525771    2.435372    0.000035
     12          1           0       -1.846146    1.673125   -0.000074
 ---------------------------------------------------------------------
                    Distance matrix (angstroms):
                    1          2          3          4          5
     1  C    0.000000
     2  C    1.399060   0.000000
     3  C    2.423097   1.398861   0.000000
     4  C    2.797970   2.423084   1.399081   0.000000
     5  C    2.423083   2.797893   2.423063   1.398858   0.000000
     6  C    1.398886   2.423069   2.797939   2.423096   1.399057
     7  H    1.092534   2.163186   3.413210   3.890503   3.413291
     8  H    2.163131   1.092542   2.163121   3.413316   3.890435
     9  H    3.413314   2.163124   1.092527   2.163146   3.413149
    10  H    3.890497   3.413155   2.163130   1.092527   2.163155
    11  H    3.413183   3.890428   3.413277   2.163086   1.092535
    12  H    2.163128   3.413290   3.890475   3.413195   2.163160
                    6          7          8          9         10
     6  C    0.000000
     7  H    2.163117   0.000000
     8  H    3.413168   2.491397   0.000000
     9  H    3.890466   4.315444   2.491647   0.000000
    10  H    3.413333   4.983030   4.315387   2.491316   0.000000
    11  H    2.163143   4.315395   4.982970   4.315365   2.491652
    12  H    1.092535   2.491603   4.315391   4.983001   4.315449
                   11         12
    11  H    0.000000
    12  H    2.491387   0.000000
 Stoichiometry    C6H6
 Framework group  C1[X(C6H6)]
 Deg. of freedom    30
 Full point group                 C1      NOp   1
 Largest Abelian subgroup         C1      NOp   1
 Largest concise Abelian subgroup C1      NOp   1
                         Standard orientation:                         
 ---------------------------------------------------------------------
 Center     Atomic      Atomic             Coordinates (Angstroms)
 Number     Number       Type             X           Y           Z
 ---------------------------------------------------------------------
      1          6           0       -1.333065    0.424379   -0.000002
      2          6           0       -0.298896    1.366644   -0.000098
      3          6           0        1.034040    0.942271    0.000077
      4          6           0        1.333029   -0.424489   -0.000014
      5          6           0        0.299009   -1.366617   -0.000076
      6          6           0       -1.034117   -0.942190    0.000077
      7          1           0       -2.374079    0.755919    0.000068
      8          1           0       -0.532510    2.433918   -0.000068
      9          1           0        1.841703    1.677998    0.000180
     10          1           0        2.374122   -0.755762    0.000005
     11          1           0        0.532369   -2.433938   -0.000035
     12          1           0       -1.841605   -1.678122    0.000074
 ---------------------------------------------------------------------
 Rotational constants (GHZ):           5.6642243           5.6640507           2.8320687
 Standard basis: 6-31G (6D, 7F)
 There are    66 symmetry adapted cartesian basis functions of A   symmetry.
 There are    66 symmetry adapted basis functions of A   symmetry.
    66 basis functions,   156 primitive gaussians,    66 cartesian basis functions
    21 alpha electrons       21 beta electrons
       nuclear repulsion energy       202.7418106759 Hartrees.
 NAtoms=   12 NActive=   12 NUniq=   12 SFac= 1.00D+00 NAtFMM=   60 NAOKFM=F Big=F
 Integral buffers will be    131072 words long.
 Raffenetti 2 integral format.
 Two-electron integral symmetry is turned on.
 One-electron integrals computed using PRISM.
 NBasis=    66 RedAO= T EigKep=  7.17D-04  NBF=    66
 NBsUse=    66 1.00D-06 EigRej= -1.00D+00 NBFU=    66
 ExpMin= 1.61D-01 ExpMax= 3.05D+03 ExpMxC= 4.57D+02 IAcc=3 IRadAn=         5 AccDes= 0.00D+00
 Harris functional with IExCor=  402 and IRadAn=       5 diagonalized for initial guess.
 HarFok:  IExCor=  402 AccDes= 0.00D+00 IRadAn=         5 IDoV= 1 UseB2=F ITyADJ=14
 ICtDFT=  3500011 ScaDFX=  1.000000  1.000000  1.000000  1.000000
 FoFCou: FMM=F IPFlag=           0 FMFlag=      100000 FMFlg1=           0
         NFxFlg=           0 DoJE=T BraDBF=F KetDBF=T FulRan=T
         wScrn=  0.000000 ICntrl=       500 IOpCl=  0 I1Cent=   200000004 NGrid=           0
         NMat0=    1 NMatS0=      1 NMatT0=    0 NMatD0=    1 NMtDS0=    0 NMtDT0=    0
 Petite list used in FoFCou.
 Keep R1 ints in memory in canonical form, NReq=9551134.
 Requested convergence on RMS density matrix=1.00D-08 within 128 cycles.
 Requested convergence on MAX density matrix=1.00D-06.
 Requested convergence on             energy=1.00D-06.
 No special actions if energy rises.
 Integral accuracy reduced to 1.0D-05 until final iterations.
 Initial convergence to 1.0D-05 achieved.  Increase integral accuracy.
 SCF Done:  E(RB3LYP) =  -232.198514818     A.U. after   10 cycles
            NFock= 10  Conv=0.58D-08     -V/T= 2.0060

 **********************************************************************

            Population analysis using the SCF density.

 **********************************************************************

 Orbital symmetries:
       Occupied  (A) (A) (A) (A) (A) (A) (A) (A) (A) (A) (A) (A)
                 (A) (A) (A) (A) (A) (A) (A) (A) (A)
       Virtual   (A) (A) (A) (A) (A) (A) (A) (A) (A) (A) (A) (A)
                 (A) (A) (A) (A) (A) (A) (A) (A) (A) (A) (A) (A)
                 (A) (A) (A) (A) (A) (A) (A) (A) (A) (A) (A) (A)
                 (A) (A) (A) (A) (A) (A) (A) (A) (A)
 The electronic state is 1-A.
 Alpha  occ. eigenvalues --  -10.18631 -10.18610 -10.18610 -10.18565 -10.18565
 Alpha  occ. eigenvalues --  -10.18545  -0.85217  -0.74399  -0.74399  -0.60047
 Alpha  occ. eigenvalues --   -0.60046  -0.52181  -0.45833  -0.44442  -0.42101
 Alpha  occ. eigenvalues --   -0.42100  -0.36225  -0.34179  -0.34177  -0.24866
 Alpha  occ. eigenvalues --   -0.24866
 Alpha virt. eigenvalues --    0.00390   0.00391   0.09028   0.14193   0.14193
 Alpha virt. eigenvalues --    0.16106   0.18003   0.18004   0.18832   0.30294
 Alpha virt. eigenvalues --    0.30296   0.32174   0.32176   0.49642   0.52575
 Alpha virt. eigenvalues --    0.54214   0.55919   0.59168   0.61049   0.61049
 Alpha virt. eigenvalues --    0.62218   0.62219   0.63517   0.66665   0.66665
 Alpha virt. eigenvalues --    0.66734   0.66734   0.74202   0.84314   0.85489
 Alpha virt. eigenvalues --    0.85490   0.89827   0.89828   0.96456   0.97350
 Alpha virt. eigenvalues --    1.00620   1.00622   1.12869   1.12870   1.19106
 Alpha virt. eigenvalues --    1.19110   1.22178   1.46025   1.46028   1.90426
          Condensed to atoms (all electrons):
               1          2          3          4          5          6
     1  C    4.893389   0.538598  -0.050191  -0.036517  -0.050194   0.538721
     2  C    0.538598   4.893379   0.538733  -0.050195  -0.036518  -0.050196
     3  C   -0.050191   0.538733   4.893384   0.538590  -0.050196  -0.036517
     4  C   -0.036517  -0.050195   0.538590   4.893382   0.538732  -0.050191
     5  C   -0.050194  -0.036518  -0.050196   0.538732   4.893377   0.538601
     6  C    0.538721  -0.050196  -0.036517  -0.050191   0.538601   4.893384
     7  H    0.353805  -0.035773   0.004533   0.000506   0.004534  -0.035775
     8  H   -0.035779   0.353803  -0.035775   0.004534   0.000506   0.004535
     9  H    0.004533  -0.035774   0.353805  -0.035778   0.004535   0.000506
    10  H    0.000506   0.004534  -0.035778   0.353806  -0.035771   0.004533
    11  H    0.004534   0.000506   0.004534  -0.035778   0.353804  -0.035778
    12  H   -0.035775   0.004534   0.000506   0.004534  -0.035776   0.353804
               7          8          9         10         11         12
     1  C    0.353805  -0.035779   0.004533   0.000506   0.004534  -0.035775
     2  C   -0.035773   0.353803  -0.035774   0.004534   0.000506   0.004534
     3  C    0.004533  -0.035775   0.353805  -0.035778   0.004534   0.000506
     4  C    0.000506   0.004534  -0.035778   0.353806  -0.035778   0.004534
     5  C    0.004534   0.000506   0.004535  -0.035771   0.353804  -0.035776
     6  C   -0.035775   0.004535   0.000506   0.004533  -0.035778   0.353804
     7  H    0.592051  -0.004593  -0.000170   0.000011  -0.000170  -0.004592
     8  H   -0.004593   0.592066  -0.004592  -0.000170   0.000011  -0.000170
     9  H   -0.000170  -0.004592   0.592060  -0.004593  -0.000170   0.000011
    10  H    0.000011  -0.000170  -0.004593   0.592052  -0.004592  -0.000170
    11  H   -0.000170   0.000011  -0.000170  -0.004592   0.592068  -0.004593
    12  H   -0.004592  -0.000170   0.000011  -0.000170  -0.004593   0.592058
 Mulliken charges:
               1
     1  C   -0.125630
     2  C   -0.125630
     3  C   -0.125628
     4  C   -0.125625
     5  C   -0.125633
     6  C   -0.125626
     7  H    0.125633
     8  H    0.125626
     9  H    0.125628
    10  H    0.125633
    11  H    0.125625
    12  H    0.125629
 Sum of Mulliken charges =   0.00000
 Mulliken charges with hydrogens summed into heavy atoms:
               1
     1  C    0.000002
     2  C   -0.000005
     3  C    0.000000
     4  C    0.000007
     5  C   -0.000008
     6  C    0.000003
 Electronic spatial extent (au):  <R**2>=            460.5615
 Charge=              0.0000 electrons
 Dipole moment (field-independent basis, Debye):
    X=              0.0000    Y=              0.0000    Z=              0.0002  Tot=              0.0002
 Quadrupole moment (field-independent basis, Debye-Ang):
   XX=            -31.6105   YY=            -31.6115   ZZ=            -38.9373
   XY=              0.0001   XZ=              0.0001   YZ=              0.0001
 Traceless Quadrupole moment (field-independent basis, Debye-Ang):
   XX=              2.4426   YY=              2.4416   ZZ=             -4.8842
   XY=              0.0001   XZ=              0.0001   YZ=              0.0001
 Octapole moment (field-independent basis, Debye-Ang**2):
  XXX=              0.0023  YYY=             -0.0016  ZZZ=              0.0002  XYY=             -0.0022
  XXY=              0.0016  XXZ=              0.0009  XZZ=              0.0001  YZZ=              0.0000
  YYZ=              0.0004  XYZ=              0.0003
 Hexadecapole moment (field-independent basis, Debye-Ang**3):
 XXXX=           -271.2927 YYYY=           -271.2935 ZZZZ=            -40.4606 XXXY=              0.0004
 XXXZ=             -0.0001 YYYX=              0.0004 YYYZ=              0.0003 ZZZX=              0.0000
 ZZZY=              0.0002 XXYY=            -90.4315 XXZZ=            -61.0668 YYZZ=            -61.0655
 XXYZ=              0.0008 YYXZ=              0.0005 ZZXY=              0.0000
 N-N= 2.027418106759D+02 E-N=-9.435274395283D+02  KE= 2.308167762190D+02
 Calling FoFJK, ICntrl=      2127 FMM=F ISym2X=0 I1Cent= 0 IOpClX= 0 NMat=1 NMatS=1 NMatT=0.
 ***** Axes restored to original set *****
 -------------------------------------------------------------------
 Center     Atomic                   Forces (Hartrees/Bohr)
 Number     Number              X              Y              Z
 -------------------------------------------------------------------
      1        6          -0.005607629   -0.001878907   -0.000000792
      2        6          -0.001352391   -0.005793636   -0.000025786
      3        6           0.004454277   -0.003896507    0.000018645
      4        6           0.005663717    0.001696597   -0.000003707
      5        6           0.001167824    0.005833075   -0.000018983
      6        6          -0.004333916    0.004035294    0.000021015
      7        1           0.004330082    0.001395209    0.000003716
      8        1           0.000972841    0.004447935    0.000003422
      9        1          -0.003376313    0.003041757    0.000002304
     10        1          -0.004332501   -0.001373755   -0.000000223
     11        1          -0.000953426   -0.004446794    0.000005093
     12        1           0.003367435   -0.003060266   -0.000004704
 -------------------------------------------------------------------
 Cartesian Forces:  Max     0.005833075 RMS     0.003050189

 GradGradGradGradGradGradGradGradGradGradGradGradGradGradGradGradGradGrad
 Berny optimization.
 FormGI is forming the generalized inverse of G from B-inverse, IUseBI=4.
 Internal  Forces:  Max     0.004553066 RMS     0.001584288
 Search for a local minimum.
 Step number   1 out of a maximum of   64
 All quantities printed in internal units (Hartrees-Bohrs-Radians)
 Mixed Optimization -- RFO/linear search
 Second derivative matrix not updated -- first step.
 ITU=  0
     Eigenvalues ---    0.02102   0.02102   0.02102   0.02102   0.02102
     Eigenvalues ---    0.02102   0.02103   0.02103   0.02103   0.16000
     Eigenvalues ---    0.16000   0.16000   0.16000   0.16000   0.16000
     Eigenvalues ---    0.22000   0.22000   0.22000   0.34520   0.34521
     Eigenvalues ---    0.34521   0.34521   0.34522   0.34522   0.41587
     Eigenvalues ---    0.41589   0.45776   0.45791   0.45794   0.45809
 RFO step:  Lambda=-3.84084410D-04 EMin= 2.10160934D-02
 Linear search not attempted -- first point.
 Iteration  1 RMS(Cart)=  0.00353126 RMS(Int)=  0.00000035
 Iteration  2 RMS(Cart)=  0.00000034 RMS(Int)=  0.00000001
 Variable       Old X    -DE/DX   Delta X   Delta X   Delta X     New X
                                 (Linear)    (Quad)   (Total)
    R1        2.64384   0.00133   0.00000   0.00291   0.00291   2.64675
    R2        2.64351   0.00142   0.00000   0.00310   0.00310   2.64661
    R3        2.06459  -0.00455   0.00000  -0.01316  -0.01316   2.05143
    R4        2.64346   0.00143   0.00000   0.00311   0.00311   2.64658
    R5        2.06461  -0.00455   0.00000  -0.01317  -0.01317   2.05143
    R6        2.64388   0.00133   0.00000   0.00289   0.00289   2.64677
    R7        2.06458  -0.00454   0.00000  -0.01315  -0.01315   2.05143
    R8        2.64346   0.00143   0.00000   0.00313   0.00313   2.64658
    R9        2.06458  -0.00455   0.00000  -0.01315  -0.01315   2.05143
   R10        2.64383   0.00133   0.00000   0.00291   0.00291   2.64674
   R11        2.06459  -0.00455   0.00000  -0.01316  -0.01316   2.05143
   R12        2.06459  -0.00455   0.00000  -0.01317  -0.01317   2.05143
    A1        2.09436   0.00001   0.00000   0.00003   0.00003   2.09439
    A2        2.09434   0.00000   0.00000   0.00000   0.00000   2.09434
    A3        2.09448  -0.00001   0.00000  -0.00003  -0.00003   2.09445
    A4        2.09443  -0.00001   0.00000  -0.00004  -0.00004   2.09439
    A5        2.09424   0.00002   0.00000   0.00010   0.00010   2.09434
    A6        2.09451  -0.00001   0.00000  -0.00006  -0.00006   2.09446
    A7        2.09439   0.00000   0.00000   0.00001   0.00001   2.09440
    A8        2.09454  -0.00001   0.00000  -0.00008  -0.00008   2.09446
    A9        2.09425   0.00001   0.00000   0.00007   0.00007   2.09433
   A10        2.09436   0.00001   0.00000   0.00003   0.00003   2.09439
   A11        2.09423   0.00001   0.00000   0.00010   0.00010   2.09432
   A12        2.09460  -0.00002   0.00000  -0.00013  -0.00013   2.09447
   A13        2.09444  -0.00001   0.00000  -0.00004  -0.00004   2.09439
   A14        2.09447   0.00000   0.00000  -0.00001  -0.00001   2.09446
   A15        2.09427   0.00001   0.00000   0.00006   0.00006   2.09433
   A16        2.09439   0.00000   0.00000   0.00001   0.00001   2.09440
   A17        2.09450  -0.00001   0.00000  -0.00005  -0.00005   2.09445
   A18        2.09430   0.00001   0.00000   0.00004   0.00004   2.09434
    D1       -0.00016   0.00000   0.00000   0.00023   0.00023   0.00007
    D2       -3.14150   0.00000   0.00000  -0.00014  -0.00014   3.14155
    D3        3.14137   0.00001   0.00000   0.00029   0.00029  -3.14152
    D4        0.00004   0.00000   0.00000  -0.00008  -0.00008  -0.00004
    D5       -0.00011   0.00000   0.00000   0.00016   0.00016   0.00004
    D6       -3.14151   0.00000   0.00000  -0.00010  -0.00010   3.14157
    D7        3.14154   0.00000   0.00000   0.00009   0.00009  -3.14155
    D8        0.00014   0.00000   0.00000  -0.00016  -0.00016  -0.00002
    D9        0.00030  -0.00001   0.00000  -0.00043  -0.00043  -0.00013
   D10       -3.14140  -0.00001   0.00000  -0.00024  -0.00024   3.14154
   D11       -3.14155   0.00000   0.00000  -0.00006  -0.00006   3.14157
   D12       -0.00007   0.00000   0.00000   0.00013   0.00013   0.00006
   D13       -0.00017   0.00001   0.00000   0.00025   0.00025   0.00008
   D14        3.14147   0.00000   0.00000   0.00017   0.00017  -3.14154
   D15        3.14153   0.00000   0.00000   0.00006   0.00006   3.14159
   D16       -0.00001   0.00000   0.00000  -0.00002  -0.00002  -0.00003
   D17       -0.00010   0.00000   0.00000   0.00014   0.00014   0.00004
   D18       -3.14147   0.00000   0.00000  -0.00016  -0.00016   3.14155
   D19        3.14145   0.00000   0.00000   0.00021   0.00021  -3.14153
   D20        0.00007   0.00000   0.00000  -0.00008  -0.00008  -0.00001
   D21        0.00024  -0.00001   0.00000  -0.00034  -0.00034  -0.00010
   D22       -3.14154   0.00000   0.00000  -0.00008  -0.00008   3.14156
   D23       -3.14157   0.00000   0.00000  -0.00004  -0.00004   3.14157
   D24       -0.00017   0.00000   0.00000   0.00021   0.00021   0.00004
         Item               Value     Threshold  Converged?
 Maximum Force            0.004553     0.000450     NO 
 RMS     Force            0.001584     0.000300     NO 
 Maximum Displacement     0.009886     0.001800     NO 
 RMS     Displacement     0.003531     0.001200     NO 
 Predicted change in Energy=-1.922526D-04
 GradGradGradGradGradGradGradGradGradGradGradGradGradGradGradGradGradGrad

                          Input orientation:                          
 ---------------------------------------------------------------------
 Center     Atomic      Atomic             Coordinates (Angstroms)
 Number     Number       Type             X           Y           Z
 ---------------------------------------------------------------------
      1          6           0       -1.333399   -0.428496   -0.000019
      2          6           0       -0.295568   -1.369019   -0.000068
      3          6           0        1.037778   -0.940519    0.000008
      4          6           0        1.333383    0.428543   -0.000027
      5          6           0        0.295617    1.369007   -0.000045
      6          6           0       -1.037812    0.940480    0.000019
      7          1           0       -2.366889   -0.760693   -0.000008
      8          1           0       -0.524744   -2.430123   -0.000059
      9          1           0        1.842222   -1.669442    0.000021
     10          1           0        2.366916    0.760609   -0.000014
     11          1           0        0.524661    2.430140   -0.000036
     12          1           0       -1.842165    1.669503    0.000040
 ---------------------------------------------------------------------
                    Distance matrix (angstroms):
                    1          2          3          4          5
     1  C    0.000000
     2  C    1.400599   0.000000
     3  C    2.425829   1.400508   0.000000
     4  C    2.801115   2.425842   1.400612   0.000000
     5  C    2.425842   2.801123   2.425844   1.400512   0.000000
     6  C    1.400525   2.425843   2.801113   2.425829   1.400595
     7  H    1.085568   2.158804   3.409413   3.886682   3.409481
     8  H    2.158803   1.085571   2.158795   3.409489   3.886693
     9  H    3.409475   2.158796   1.085569   2.158810   3.409423
    10  H    3.886683   3.409419   2.158807   1.085568   2.158803
    11  H    3.409427   3.886694   3.409492   2.158801   1.085571
    12  H    2.158806   3.409484   3.886681   3.409412   2.158798
                    6          7          8          9         10
     6  C    0.000000
     7  H    2.158805   0.000000
     8  H    3.409429   2.486060   0.000000
     9  H    3.886682   4.306094   2.486195   0.000000
    10  H    3.409476   4.972250   4.306097   2.486052   0.000000
    11  H    2.158798   4.306099   4.972265   4.306106   2.486209
    12  H    1.085568   2.486199   4.306104   4.972250   4.306095
                   11         12
    11  H    0.000000
    12  H    2.486049   0.000000
 Stoichiometry    C6H6
 Framework group  C1[X(C6H6)]
 Deg. of freedom    30
 Full point group                 C1      NOp   1
 Largest Abelian subgroup         C1      NOp   1
 Largest concise Abelian subgroup C1      NOp   1
                         Standard orientation:                         
 ---------------------------------------------------------------------
 Center     Atomic      Atomic             Coordinates (Angstroms)
 Number     Number       Type             X           Y           Z
 ---------------------------------------------------------------------
      1          6           0       -0.596433   -1.267213   -0.000002
      2          6           0       -1.395663   -0.117035    0.000048
      3          6           0       -0.799233    1.150125   -0.000028
      4          6           0        0.596479    1.267191    0.000007
      5          6           0        1.395659    0.117085    0.000025
      6          6           0        0.799191   -1.150153   -0.000039
      7          1           0       -1.058794   -2.249394   -0.000012
      8          1           0       -2.477429   -0.207834    0.000039
      9          1           0       -1.418637    2.041638   -0.000041
     10          1           0        1.058715    2.249431   -0.000007
     11          1           0        2.477437    0.207749    0.000016
     12          1           0        1.418706   -2.041590   -0.000060
 ---------------------------------------------------------------------
 Rotational constants (GHZ):           5.6591302           5.6590565           2.8295467
 Standard basis: 6-31G (6D, 7F)
 There are    66 symmetry adapted cartesian basis functions of A   symmetry.
 There are    66 symmetry adapted basis functions of A   symmetry.
    66 basis functions,   156 primitive gaussians,    66 cartesian basis functions
    21 alpha electrons       21 beta electrons
       nuclear repulsion energy       202.7415818810 Hartrees.
 NAtoms=   12 NActive=   12 NUniq=   12 SFac= 1.00D+00 NAtFMM=   60 NAOKFM=F Big=F
 Integral buffers will be    131072 words long.
 Raffenetti 2 integral format.
 Two-electron integral symmetry is turned on.
 One-electron integrals computed using PRISM.
 NBasis=    66 RedAO= T EigKep=  7.21D-04  NBF=    66
 NBsUse=    66 1.00D-06 EigRej= -1.00D+00 NBFU=    66
 Initial guess from the checkpoint file:  "benzene.chk"
 B after Tr=     0.000000    0.000000    0.000000
         Rot=    0.752097   -0.000003   -0.000001   -0.659052 Ang= -82.46 deg.
 Keep R1 ints in memory in canonical form, NReq=9551134.
 Requested convergence on RMS density matrix=1.00D-08 within 128 cycles.
 Requested convergence on MAX density matrix=1.00D-06.
 Requested convergence on             energy=1.00D-06.
 No special actions if energy rises.
 SCF Done:  E(RB3LYP) =  -232.198702334     A.U. after    7 cycles
            NFock=  7  Conv=0.78D-08     -V/T= 2.0058
 Calling FoFJK, ICntrl=      2127 FMM=F ISym2X=0 I1Cent= 0 IOpClX= 0 NMat=1 NMatS=1 NMatT=0.
 ***** Axes restored to original set *****
 -------------------------------------------------------------------
 Center     Atomic                   Forces (Hartrees/Bohr)
 Number     Number              X              Y              Z
 -------------------------------------------------------------------
      1        6           0.000221460    0.000039278   -0.000001247
      2        6           0.000003960    0.000219282    0.000011519
      3        6          -0.000126230    0.000187568   -0.000010200
      4        6          -0.000196227   -0.000117481    0.000002554
      5        6          -0.000083120   -0.000201874    0.000007117
      6        6           0.000180631   -0.000126973   -0.000007218
      7        1          -0.000124076   -0.000035172   -0.000000332
      8        1          -0.000022151   -0.000125422   -0.000001827
      9        1           0.000092333   -0.000089671    0.000000604
     10        1           0.000120734    0.000045116   -0.000000547
     11        1           0.000032029    0.000122936   -0.000001272
     12        1          -0.000099343    0.000082413    0.000000848
 -------------------------------------------------------------------
 Cartesian Forces:  Max     0.000221460 RMS     0.000105107

 GradGradGradGradGradGradGradGradGradGradGradGradGradGradGradGradGradGrad
 Berny optimization.
 Using GEDIIS/GDIIS optimizer.
 FormGI is forming the generalized inverse of G from B-inverse, IUseBI=4.
 Internal  Forces:  Max     0.000128954 RMS     0.000052949
 Search for a local minimum.
 Step number   2 out of a maximum of   64
 All quantities printed in internal units (Hartrees-Bohrs-Radians)
 Mixed Optimization -- En-DIIS/RFO-DIIS
 Update second derivatives using D2CorX and points    1    2
 DE= -1.88D-04 DEPred=-1.92D-04 R= 9.75D-01
 TightC=F SS=  1.41D+00  RLast= 3.31D-02 DXNew= 5.0454D-01 9.9249D-02
 Trust test= 9.75D-01 RLast= 3.31D-02 DXMaxT set to 3.00D-01
 ITU=  1  0
 Use linear search instead of GDIIS.
     Eigenvalues ---    0.02102   0.02102   0.02102   0.02102   0.02102
     Eigenvalues ---    0.02102   0.02103   0.02103   0.02103   0.16000
     Eigenvalues ---    0.16000   0.16000   0.16000   0.16000   0.16000
     Eigenvalues ---    0.22000   0.22000   0.22000   0.34521   0.34521
     Eigenvalues ---    0.34521   0.34522   0.34522   0.35353   0.41595
     Eigenvalues ---    0.41597   0.45788   0.45791   0.45794   0.46139
 RFO step:  Lambda=-4.27652733D-08 EMin= 2.10161228D-02
 Quartic linear search produced a step of -0.02912.
 Iteration  1 RMS(Cart)=  0.00009279 RMS(Int)=  0.00000001
 Iteration  2 RMS(Cart)=  0.00000001 RMS(Int)=  0.00000000
 Variable       Old X    -DE/DX   Delta X   Delta X   Delta X     New X
                                 (Linear)    (Quad)   (Total)
    R1        2.64675  -0.00011  -0.00008  -0.00014  -0.00023   2.64652
    R2        2.64661  -0.00008  -0.00009  -0.00008  -0.00017   2.64644
    R3        2.05143   0.00013   0.00038  -0.00003   0.00035   2.05178
    R4        2.64658  -0.00006  -0.00009  -0.00004  -0.00013   2.64644
    R5        2.05143   0.00013   0.00038  -0.00004   0.00035   2.05178
    R6        2.64677  -0.00012  -0.00008  -0.00017  -0.00026   2.64652
    R7        2.05143   0.00013   0.00038  -0.00003   0.00035   2.05178
    R8        2.64658  -0.00007  -0.00009  -0.00005  -0.00014   2.64644
    R9        2.05143   0.00013   0.00038  -0.00003   0.00035   2.05178
   R10        2.64674  -0.00011  -0.00008  -0.00014  -0.00022   2.64652
   R11        2.05143   0.00013   0.00038  -0.00004   0.00035   2.05178
   R12        2.05143   0.00013   0.00038  -0.00003   0.00035   2.05178
    A1        2.09439   0.00000   0.00000   0.00000   0.00000   2.09440
    A2        2.09434   0.00000   0.00000   0.00003   0.00003   2.09437
    A3        2.09445  -0.00001   0.00000  -0.00003  -0.00003   2.09442
    A4        2.09439   0.00000   0.00000   0.00000   0.00001   2.09440
    A5        2.09434   0.00000   0.00000   0.00003   0.00002   2.09436
    A6        2.09446  -0.00001   0.00000  -0.00003  -0.00003   2.09443
    A7        2.09440   0.00000   0.00000  -0.00001  -0.00001   2.09439
    A8        2.09446   0.00000   0.00000  -0.00003  -0.00003   2.09443
    A9        2.09433   0.00001   0.00000   0.00004   0.00003   2.09436
   A10        2.09439   0.00000   0.00000   0.00000   0.00000   2.09440
   A11        2.09432   0.00001   0.00000   0.00004   0.00003   2.09436
   A12        2.09447  -0.00001   0.00000  -0.00004  -0.00004   2.09443
   A13        2.09439   0.00000   0.00000   0.00000   0.00001   2.09440
   A14        2.09446  -0.00001   0.00000  -0.00004  -0.00004   2.09442
   A15        2.09433   0.00001   0.00000   0.00003   0.00003   2.09436
   A16        2.09440   0.00000   0.00000  -0.00001  -0.00001   2.09439
   A17        2.09445   0.00000   0.00000  -0.00003  -0.00003   2.09442
   A18        2.09434   0.00001   0.00000   0.00004   0.00004   2.09437
    D1        0.00007   0.00000  -0.00001  -0.00009  -0.00010  -0.00003
    D2        3.14155   0.00000   0.00000   0.00005   0.00005  -3.14158
    D3       -3.14152   0.00000  -0.00001  -0.00009  -0.00010   3.14157
    D4       -0.00004   0.00000   0.00000   0.00005   0.00005   0.00001
    D5        0.00004   0.00000   0.00000  -0.00005  -0.00006  -0.00002
    D6        3.14157   0.00000   0.00000   0.00002   0.00003  -3.14158
    D7       -3.14155   0.00000   0.00000  -0.00005  -0.00006   3.14158
    D8       -0.00002   0.00000   0.00000   0.00002   0.00003   0.00001
    D9       -0.00013   0.00000   0.00001   0.00017   0.00018   0.00005
   D10        3.14154   0.00000   0.00001   0.00006   0.00007  -3.14158
   D11        3.14157   0.00000   0.00000   0.00003   0.00003  -3.14158
   D12        0.00006   0.00000   0.00000  -0.00007  -0.00008  -0.00002
   D13        0.00008   0.00000  -0.00001  -0.00010  -0.00011  -0.00003
   D14       -3.14154   0.00000  -0.00001  -0.00006  -0.00007   3.14157
   D15        3.14159   0.00000   0.00000   0.00001   0.00000  -3.14159
   D16       -0.00003   0.00000   0.00000   0.00004   0.00004   0.00001
   D17        0.00004   0.00000   0.00000  -0.00005  -0.00005  -0.00001
   D18        3.14155   0.00000   0.00000   0.00005   0.00005  -3.14158
   D19       -3.14153   0.00000  -0.00001  -0.00008  -0.00009   3.14157
   D20       -0.00001   0.00000   0.00000   0.00001   0.00002   0.00001
   D21       -0.00010   0.00000   0.00001   0.00012   0.00013   0.00004
   D22        3.14156   0.00000   0.00000   0.00005   0.00005  -3.14158
   D23        3.14157   0.00000   0.00000   0.00003   0.00003  -3.14159
   D24        0.00004   0.00000  -0.00001  -0.00005  -0.00006  -0.00002
         Item               Value     Threshold  Converged?
 Maximum Force            0.000129     0.000450     YES
 RMS     Force            0.000053     0.000300     YES
 Maximum Displacement     0.000203     0.001800     YES
 RMS     Displacement     0.000093     0.001200     YES
 Predicted change in Energy=-1.957653D-07
 Optimization completed.
    -- Stationary point found.
                           ----------------------------
                           !   Optimized Parameters   !
                           ! (Angstroms and Degrees)  !
 --------------------------                            --------------------------
 ! Name  Definition              Value          Derivative Info.                !
 --------------------------------------------------------------------------------
 ! R1    R(1,2)                  1.4006         -DE/DX =   -0.0001              !
 ! R2    R(1,6)                  1.4005         -DE/DX =   -0.0001              !
 ! R3    R(1,7)                  1.0856         -DE/DX =    0.0001              !
 ! R4    R(2,3)                  1.4005         -DE/DX =   -0.0001              !
 ! R5    R(2,8)                  1.0856         -DE/DX =    0.0001              !
 ! R6    R(3,4)                  1.4006         -DE/DX =   -0.0001              !
 ! R7    R(3,9)                  1.0856         -DE/DX =    0.0001              !
 ! R8    R(4,5)                  1.4005         -DE/DX =   -0.0001              !
 ! R9    R(4,10)                 1.0856         -DE/DX =    0.0001              !
 ! R10   R(5,6)                  1.4006         -DE/DX =   -0.0001              !
 ! R11   R(5,11)                 1.0856         -DE/DX =    0.0001              !
 ! R12   R(6,12)                 1.0856         -DE/DX =    0.0001              !
 ! A1    A(2,1,6)              119.9999         -DE/DX =    0.0                 !
 ! A2    A(2,1,7)              119.9968         -DE/DX =    0.0                 !
 ! A3    A(6,1,7)              120.0032         -DE/DX =    0.0                 !
 ! A4    A(1,2,3)              120.0            -DE/DX =    0.0                 !
 ! A5    A(1,2,8)              119.9966         -DE/DX =    0.0                 !
 ! A6    A(3,2,8)              120.0035         -DE/DX =    0.0                 !
 ! A7    A(2,3,4)              120.0001         -DE/DX =    0.0                 !
 ! A8    A(2,3,9)              120.0037         -DE/DX =    0.0                 !
 ! A9    A(4,3,9)              119.9962         -DE/DX =    0.0                 !
 ! A10   A(3,4,5)              120.0            -DE/DX =    0.0                 !
 ! A11   A(3,4,10)             119.9959         -DE/DX =    0.0                 !
 ! A12   A(5,4,10)             120.0041         -DE/DX =    0.0                 !
 ! A13   A(4,5,6)              119.9999         -DE/DX =    0.0                 !
 ! A14   A(4,5,11)             120.0037         -DE/DX =    0.0                 !
 ! A15   A(6,5,11)             119.9963         -DE/DX =    0.0                 !
 ! A16   A(1,6,5)              120.0001         -DE/DX =    0.0                 !
 ! A17   A(1,6,12)             120.0033         -DE/DX =    0.0                 !
 ! A18   A(5,6,12)             119.9966         -DE/DX =    0.0                 !
 ! D1    D(6,1,2,3)              0.0041         -DE/DX =    0.0                 !
 ! D2    D(6,1,2,8)           -180.0023         -DE/DX =    0.0                 !
 ! D3    D(7,1,2,3)            180.0042         -DE/DX =    0.0                 !
 ! D4    D(7,1,2,8)             -0.0022         -DE/DX =    0.0                 !
 ! D5    D(2,1,6,5)              0.0025         -DE/DX =    0.0                 !
 ! D6    D(2,1,6,12)          -180.0011         -DE/DX =    0.0                 !
 ! D7    D(7,1,6,5)            180.0024         -DE/DX =    0.0                 !
 ! D8    D(7,1,6,12)            -0.0012         -DE/DX =    0.0                 !
 ! D9    D(1,2,3,4)             -0.0076         -DE/DX =    0.0                 !
 ! D10   D(1,2,3,9)           -180.0031         -DE/DX =    0.0                 !
 ! D11   D(8,2,3,4)           -180.0011         -DE/DX =    0.0                 !
 ! D12   D(8,2,3,9)              0.0033         -DE/DX =    0.0                 !
 ! D13   D(2,3,4,5)              0.0044         -DE/DX =    0.0                 !
 ! D14   D(2,3,4,10)           180.0027         -DE/DX =    0.0                 !
 ! D15   D(9,3,4,5)           -180.0001         -DE/DX =    0.0                 !
 ! D16   D(9,3,4,10)            -0.0017         -DE/DX =    0.0                 !
 ! D17   D(3,4,5,6)              0.0022         -DE/DX =    0.0                 !
 ! D18   D(3,4,5,11)          -180.0022         -DE/DX =    0.0                 !
 ! D19   D(10,4,5,6)           180.0039         -DE/DX =    0.0                 !
 ! D20   D(10,4,5,11)           -0.0005         -DE/DX =    0.0                 !
 ! D21   D(4,5,6,1)             -0.0057         -DE/DX =    0.0                 !
 ! D22   D(4,5,6,12)          -180.0021         -DE/DX =    0.0                 !
 ! D23   D(11,5,6,1)          -180.0012         -DE/DX =    0.0                 !
 ! D24   D(11,5,6,12)            0.0023         -DE/DX =    0.0                 !
 --------------------------------------------------------------------------------
 GradGradGradGradGradGradGradGradGradGradGradGradGradGradGradGradGradGrad

                          Input orientation:                          
 ---------------------------------------------------------------------
 Center     Atomic      Atomic             Coordinates (Angstroms)
 Number     Number       Type             X           Y           Z
 ---------------------------------------------------------------------
      1          6           0       -1.333399   -0.428496   -0.000019
      2          6           0       -0.295568   -1.369019   -0.000068
      3          6           0        1.037778   -0.940519    0.000008
      4          6           0        1.333383    0.428543   -0.000027
      5          6           0        0.295617    1.369007   -0.000045
      6          6           0       -1.037812    0.940480    0.000019
      7          1           0       -2.366889   -0.760693   -0.000008
      8          1           0       -0.524744   -2.430123   -0.000059
      9          1           0        1.842222   -1.669442    0.000021
     10          1           0        2.366916    0.760609   -0.000014
     11          1           0        0.524661    2.430140   -0.000036
     12          1           0       -1.842165    1.669503    0.000040
 ---------------------------------------------------------------------
                    Distance matrix (angstroms):
                    1          2          3          4          5
     1  C    0.000000
     2  C    1.400599   0.000000
     3  C    2.425829   1.400508   0.000000
     4  C    2.801115   2.425842   1.400612   0.000000
     5  C    2.425842   2.801123   2.425844   1.400512   0.000000
     6  C    1.400525   2.425843   2.801113   2.425829   1.400595
     7  H    1.085568   2.158804   3.409413   3.886682   3.409481
     8  H    2.158803   1.085571   2.158795   3.409489   3.886693
     9  H    3.409475   2.158796   1.085569   2.158810   3.409423
    10  H    3.886683   3.409419   2.158807   1.085568   2.158803
    11  H    3.409427   3.886694   3.409492   2.158801   1.085571
    12  H    2.158806   3.409484   3.886681   3.409412   2.158798
                    6          7          8          9         10
     6  C    0.000000
     7  H    2.158805   0.000000
     8  H    3.409429   2.486060   0.000000
     9  H    3.886682   4.306094   2.486195   0.000000
    10  H    3.409476   4.972250   4.306097   2.486052   0.000000
    11  H    2.158798   4.306099   4.972265   4.306106   2.486209
    12  H    1.085568   2.486199   4.306104   4.972250   4.306095
                   11         12
    11  H    0.000000
    12  H    2.486049   0.000000
 Stoichiometry    C6H6
 Framework group  C1[X(C6H6)]
 Deg. of freedom    30
 Full point group                 C1      NOp   1
 Largest Abelian subgroup         C1      NOp   1
 Largest concise Abelian subgroup C1      NOp   1
                         Standard orientation:                         
 ---------------------------------------------------------------------
 Center     Atomic      Atomic             Coordinates (Angstroms)
 Number     Number       Type             X           Y           Z
 ---------------------------------------------------------------------
      1          6           0       -0.596433   -1.267213   -0.000002
      2          6           0       -1.395663   -0.117035    0.000048
      3          6           0       -0.799233    1.150125   -0.000028
      4          6           0        0.596479    1.267191    0.000007
      5          6           0        1.395659    0.117085    0.000025
      6          6           0        0.799191   -1.150153   -0.000039
      7          1           0       -1.058794   -2.249394   -0.000012
      8          1           0       -2.477429   -0.207834    0.000039
      9          1           0       -1.418637    2.041638   -0.000041
     10          1           0        1.058715    2.249431   -0.000007
     11          1           0        2.477437    0.207749    0.000016
     12          1           0        1.418706   -2.041590   -0.000060
 ---------------------------------------------------------------------
 Rotational constants (GHZ):           5.6591302           5.6590565           2.8295467

 **********************************************************************

            Population analysis using the SCF density.

 **********************************************************************

 Orbital symmetries:
       Occupied  (A) (A) (A) (A) (A) (A) (A) (A) (A) (A) (A) (A)
                 (A) (A) (A) (A) (A) (A) (A) (A) (A)
       Virtual   (A) (A) (A) (A) (A) (A) (A) (A) (A) (A) (A) (A)
                 (A) (A) (A) (A) (A) (A) (A) (A) (A) (A) (A) (A)
                 (A) (A) (A) (A) (A) (A) (A) (A) (A) (A) (A) (A)
                 (A) (A) (A) (A) (A) (A) (A) (A) (A)
 The electronic state is 1-A.
 Alpha  occ. eigenvalues --  -10.18567 -10.18547 -10.18547 -10.18502 -10.18502
 Alpha  occ. eigenvalues --  -10.18483  -0.85112  -0.74387  -0.74387  -0.60112
 Alpha  occ. eigenvalues --   -0.60111  -0.52265  -0.46067  -0.44365  -0.42162
 Alpha  occ. eigenvalues --   -0.42161  -0.36142  -0.34234  -0.34234  -0.24819
 Alpha  occ. eigenvalues --   -0.24818
 Alpha virt. eigenvalues --    0.00373   0.00374   0.09276   0.14394   0.14394
 Alpha virt. eigenvalues --    0.16039   0.18105   0.18105   0.19015   0.30302
 Alpha virt. eigenvalues --    0.30303   0.32080   0.32080   0.49724   0.52624
 Alpha virt. eigenvalues --    0.54134   0.55774   0.59139   0.61088   0.61088
 Alpha virt. eigenvalues --    0.62188   0.62189   0.63411   0.66695   0.66696
 Alpha virt. eigenvalues --    0.66749   0.66750   0.74213   0.84553   0.86013
 Alpha virt. eigenvalues --    0.86014   0.90331   0.90331   0.97048   0.97277
 Alpha virt. eigenvalues --    1.00541   1.00541   1.12696   1.12696   1.19084
 Alpha virt. eigenvalues --    1.19084   1.22129   1.46272   1.46272   1.90693
          Condensed to atoms (all electrons):
               1          2          3          4          5          6
     1  C    4.892327   0.538058  -0.049497  -0.036433  -0.049496   0.538115
     2  C    0.538058   4.892323   0.538117  -0.049496  -0.036432  -0.049496
     3  C   -0.049497   0.538117   4.892329   0.538056  -0.049496  -0.036432
     4  C   -0.036433  -0.049496   0.538056   4.892327   0.538116  -0.049497
     5  C   -0.049496  -0.036432  -0.049496   0.538116   4.892323   0.538058
     6  C    0.538115  -0.049496  -0.036432  -0.049497   0.538058   4.892329
     7  H    0.354572  -0.036342   0.004588   0.000513   0.004587  -0.036341
     8  H   -0.036342   0.354572  -0.036341   0.004587   0.000513   0.004588
     9  H    0.004587  -0.036341   0.354572  -0.036342   0.004588   0.000513
    10  H    0.000513   0.004588  -0.036342   0.354572  -0.036341   0.004587
    11  H    0.004588   0.000513   0.004587  -0.036340   0.354572  -0.036342
    12  H   -0.036340   0.004587   0.000513   0.004588  -0.036342   0.354572
               7          8          9         10         11         12
     1  C    0.354572  -0.036342   0.004587   0.000513   0.004588  -0.036340
     2  C   -0.036342   0.354572  -0.036341   0.004588   0.000513   0.004587
     3  C    0.004588  -0.036341   0.354572  -0.036342   0.004587   0.000513
     4  C    0.000513   0.004587  -0.036342   0.354572  -0.036340   0.004588
     5  C    0.004587   0.000513   0.004588  -0.036341   0.354572  -0.036342
     6  C   -0.036341   0.004588   0.000513   0.004587  -0.036342   0.354572
     7  H    0.593374  -0.004632  -0.000174   0.000011  -0.000174  -0.004632
     8  H   -0.004632   0.593372  -0.004632  -0.000174   0.000011  -0.000174
     9  H   -0.000174  -0.004632   0.593373  -0.004632  -0.000174   0.000011
    10  H    0.000011  -0.000174  -0.004632   0.593374  -0.004632  -0.000174
    11  H   -0.000174   0.000011  -0.000174  -0.004632   0.593372  -0.004632
    12  H   -0.004632  -0.000174   0.000011  -0.000174  -0.004632   0.593373
 Mulliken charges:
               1
     1  C   -0.124650
     2  C   -0.124649
     3  C   -0.124653
     4  C   -0.124650
     5  C   -0.124649
     6  C   -0.124653
     7  H    0.124650
     8  H    0.124652
     9  H    0.124650
    10  H    0.124650
    11  H    0.124652
    12  H    0.124650
 Sum of Mulliken charges =   0.00000
 Mulliken charges with hydrogens summed into heavy atoms:
               1
     1  C    0.000000
     2  C    0.000003
     3  C   -0.000003
     4  C    0.000000
     5  C    0.000003
     6  C   -0.000003
 Electronic spatial extent (au):  <R**2>=            460.4839
 Charge=              0.0000 electrons
 Dipole moment (field-independent basis, Debye):
    X=              0.0000    Y=              0.0000    Z=              0.0000  Tot=              0.0000
 Quadrupole moment (field-independent basis, Debye-Ang):
   XX=            -31.5721   YY=            -31.5721   ZZ=            -38.9112
   XY=              0.0000   XZ=              0.0000   YZ=              0.0000
 Traceless Quadrupole moment (field-independent basis, Debye-Ang):
   XX=              2.4464   YY=              2.4464   ZZ=             -4.8928
   XY=              0.0000   XZ=              0.0000   YZ=              0.0000
 Octapole moment (field-independent basis, Debye-Ang**2):
  XXX=              0.0003  YYY=              0.0014  ZZZ=             -0.0001  XYY=             -0.0004
  XXY=             -0.0014  XXZ=             -0.0001  XZZ=              0.0000  YZZ=              0.0000
  YYZ=             -0.0003  XYZ=              0.0001
 Hexadecapole moment (field-independent basis, Debye-Ang**3):
 XXXX=           -271.0192 YYYY=           -271.0164 ZZZZ=            -40.4389 XXXY=             -0.0001
 XXXZ=              0.0006 YYYX=              0.0000 YYYZ=             -0.0004 ZZZX=              0.0008
 ZZZY=             -0.0005 XXYY=            -90.3394 XXZZ=            -60.9458 YYZZ=            -60.9453
 XXYZ=             -0.0001 YYXZ=              0.0002 ZZXY=              0.0000
 N-N= 2.027415818810D+02 E-N=-9.435562386136D+02  KE= 2.308496177230D+02
 1\1\GINC-LSQC03\FOpt\RB3LYP\6-31G\C6H6\QINGCHUN\21-Jun-2020\0\\# opt f
 req b3lyp/6-31G\\6-31G\\0,1\C,-1.3333987034,-0.4284964211,-0.000018609
 7\C,-0.2955675654,-1.3690192549,-0.0000677389\C,1.037778307,-0.9405194
 45,0.0000079291\C,1.3333832859,0.4285431862,-0.0000274364\C,0.29561663
 09,1.3690074005,-0.0000452517\C,-1.0378117475,0.9404803498,0.000018969
 1\H,-2.3668890982,-0.760693446,-0.0000077313\H,-0.5247444883,-2.430123
 1848,-0.0000587799\H,1.8422224456,-1.6694424263,0.0000207028\H,2.36691
 59659,0.7606092783,-0.0000136264\H,0.5246613201,2.4301403842,-0.000036
 2442\H,-1.8421653526,1.669502579,0.0000398176\\Version=ES64L-G16RevA.0
 3\State=1-A\HF=-232.1987023\RMSD=7.758e-09\RMSF=1.051e-04\Dipole=0.,-0
 .0000004,0.0000184\Quadrupole=1.8188056,1.8188342,-3.6376398,-0.000007
 7,-0.0000067,0.000014\PG=C01 [X(C6H6)]\\@


 Until you make peace with who you are,
 you'll never be content with what you have.
                           -- Doris Mortman
 Job cpu time:       0 days  0 hours  2 minutes 20.6 seconds.
 Elapsed time:       0 days  0 hours  0 minutes 35.8 seconds.
 File lengths (MBytes):  RWF=      6 Int=      0 D2E=      0 Chk=      2 Scr=      1
 Normal termination of Gaussian 16 at Sun Jun 21 18:05:19 2020.
 Link1:  Proceeding to internal job step number  2.
 -----------------------------------------------------------------
 #N Geom=AllCheck Guess=TCheck SCRF=Check GenChk RB3LYP/6-31G Freq
 -----------------------------------------------------------------
 1/10=4,29=7,30=1,38=1,40=1/1,3;
 2/12=2,40=1/2;
 3/5=1,6=6,11=2,14=-4,25=1,30=1,70=2,71=2,74=-5,116=1,140=1/1,2,3;
 4/5=101/1;
 5/5=2,38=6,98=1/2;
 8/6=4,10=90,11=11/1;
 11/6=1,8=1,9=11,15=111,16=1/1,2,10;
 10/6=1/2;
 6/7=2,8=2,9=2,10=2,28=1/1;
 7/8=1,10=1,25=1/1,2,3,16;
 1/10=4,30=1/3;
 99//99;
 Structure from the checkpoint file:  "benzene.chk"
 -----
 6-31G
 -----
 Charge =  0 Multiplicity = 1
 Redundant internal coordinates found in file.  (old form).
 C,0,-1.3333987034,-0.4284964211,-0.0000186097
 C,0,-0.2955675654,-1.3690192549,-0.0000677389
 C,0,1.037778307,-0.940519445,0.0000079291
 C,0,1.3333832859,0.4285431862,-0.0000274364
 C,0,0.2956166309,1.3690074005,-0.0000452517
 C,0,-1.0378117475,0.9404803498,0.0000189691
 H,0,-2.3668890982,-0.760693446,-0.0000077313
 H,0,-0.5247444883,-2.4301231848,-0.0000587799
 H,0,1.8422224456,-1.6694424263,0.0000207028
 H,0,2.3669159659,0.7606092783,-0.0000136264
 H,0,0.5246613201,2.4301403842,-0.0000362442
 H,0,-1.8421653526,1.669502579,0.0000398176
 Recover connectivity data from disk.

 GradGradGradGradGradGradGradGradGradGradGradGradGradGradGradGradGradGrad
 Berny optimization.
 Initialization pass.
                           ----------------------------
                           !    Initial Parameters    !
                           ! (Angstroms and Degrees)  !
 --------------------------                            --------------------------
 ! Name  Definition              Value          Derivative Info.                !
 --------------------------------------------------------------------------------
 ! R1    R(1,2)                  1.4006         calculate D2E/DX2 analytically  !
 ! R2    R(1,6)                  1.4005         calculate D2E/DX2 analytically  !
 ! R3    R(1,7)                  1.0856         calculate D2E/DX2 analytically  !
 ! R4    R(2,3)                  1.4005         calculate D2E/DX2 analytically  !
 ! R5    R(2,8)                  1.0856         calculate D2E/DX2 analytically  !
 ! R6    R(3,4)                  1.4006         calculate D2E/DX2 analytically  !
 ! R7    R(3,9)                  1.0856         calculate D2E/DX2 analytically  !
 ! R8    R(4,5)                  1.4005         calculate D2E/DX2 analytically  !
 ! R9    R(4,10)                 1.0856         calculate D2E/DX2 analytically  !
 ! R10   R(5,6)                  1.4006         calculate D2E/DX2 analytically  !
 ! R11   R(5,11)                 1.0856         calculate D2E/DX2 analytically  !
 ! R12   R(6,12)                 1.0856         calculate D2E/DX2 analytically  !
 ! A1    A(2,1,6)              119.9999         calculate D2E/DX2 analytically  !
 ! A2    A(2,1,7)              119.9968         calculate D2E/DX2 analytically  !
 ! A3    A(6,1,7)              120.0032         calculate D2E/DX2 analytically  !
 ! A4    A(1,2,3)              120.0            calculate D2E/DX2 analytically  !
 ! A5    A(1,2,8)              119.9966         calculate D2E/DX2 analytically  !
 ! A6    A(3,2,8)              120.0035         calculate D2E/DX2 analytically  !
 ! A7    A(2,3,4)              120.0001         calculate D2E/DX2 analytically  !
 ! A8    A(2,3,9)              120.0037         calculate D2E/DX2 analytically  !
 ! A9    A(4,3,9)              119.9962         calculate D2E/DX2 analytically  !
 ! A10   A(3,4,5)              120.0            calculate D2E/DX2 analytically  !
 ! A11   A(3,4,10)             119.9959         calculate D2E/DX2 analytically  !
 ! A12   A(5,4,10)             120.0041         calculate D2E/DX2 analytically  !
 ! A13   A(4,5,6)              119.9999         calculate D2E/DX2 analytically  !
 ! A14   A(4,5,11)             120.0037         calculate D2E/DX2 analytically  !
 ! A15   A(6,5,11)             119.9963         calculate D2E/DX2 analytically  !
 ! A16   A(1,6,5)              120.0001         calculate D2E/DX2 analytically  !
 ! A17   A(1,6,12)             120.0033         calculate D2E/DX2 analytically  !
 ! A18   A(5,6,12)             119.9966         calculate D2E/DX2 analytically  !
 ! D1    D(6,1,2,3)              0.0041         calculate D2E/DX2 analytically  !
 ! D2    D(6,1,2,8)            179.9977         calculate D2E/DX2 analytically  !
 ! D3    D(7,1,2,3)           -179.9958         calculate D2E/DX2 analytically  !
 ! D4    D(7,1,2,8)             -0.0022         calculate D2E/DX2 analytically  !
 ! D5    D(2,1,6,5)              0.0025         calculate D2E/DX2 analytically  !
 ! D6    D(2,1,6,12)           179.9989         calculate D2E/DX2 analytically  !
 ! D7    D(7,1,6,5)           -179.9976         calculate D2E/DX2 analytically  !
 ! D8    D(7,1,6,12)            -0.0012         calculate D2E/DX2 analytically  !
 ! D9    D(1,2,3,4)             -0.0076         calculate D2E/DX2 analytically  !
 ! D10   D(1,2,3,9)            179.9969         calculate D2E/DX2 analytically  !
 ! D11   D(8,2,3,4)            179.9989         calculate D2E/DX2 analytically  !
 ! D12   D(8,2,3,9)              0.0033         calculate D2E/DX2 analytically  !
 ! D13   D(2,3,4,5)              0.0044         calculate D2E/DX2 analytically  !
 ! D14   D(2,3,4,10)          -179.9973         calculate D2E/DX2 analytically  !
 ! D15   D(9,3,4,5)            179.9999         calculate D2E/DX2 analytically  !
 ! D16   D(9,3,4,10)            -0.0017         calculate D2E/DX2 analytically  !
 ! D17   D(3,4,5,6)              0.0022         calculate D2E/DX2 analytically  !
 ! D18   D(3,4,5,11)           179.9978         calculate D2E/DX2 analytically  !
 ! D19   D(10,4,5,6)          -179.9961         calculate D2E/DX2 analytically  !
 ! D20   D(10,4,5,11)           -0.0005         calculate D2E/DX2 analytically  !
 ! D21   D(4,5,6,1)             -0.0057         calculate D2E/DX2 analytically  !
 ! D22   D(4,5,6,12)           179.9979         calculate D2E/DX2 analytically  !
 ! D23   D(11,5,6,1)           179.9988         calculate D2E/DX2 analytically  !
 ! D24   D(11,5,6,12)            0.0023         calculate D2E/DX2 analytically  !
 --------------------------------------------------------------------------------
 Trust Radius=3.00D-01 FncErr=1.00D-07 GrdErr=1.00D-07 EigMax=2.50D+02 EigMin=1.00D-04
 Number of steps in this run=      2 maximum allowed number of steps=      2.
 GradGradGradGradGradGradGradGradGradGradGradGradGradGradGradGradGradGrad

                          Input orientation:                          
 ---------------------------------------------------------------------
 Center     Atomic      Atomic             Coordinates (Angstroms)
 Number     Number       Type             X           Y           Z
 ---------------------------------------------------------------------
      1          6           0       -1.333399   -0.428496   -0.000019
      2          6           0       -0.295568   -1.369019   -0.000068
      3          6           0        1.037778   -0.940519    0.000008
      4          6           0        1.333383    0.428543   -0.000027
      5          6           0        0.295617    1.369007   -0.000045
      6          6           0       -1.037812    0.940480    0.000019
      7          1           0       -2.366889   -0.760693   -0.000008
      8          1           0       -0.524744   -2.430123   -0.000059
      9          1           0        1.842222   -1.669442    0.000021
     10          1           0        2.366916    0.760609   -0.000014
     11          1           0        0.524661    2.430140   -0.000036
     12          1           0       -1.842165    1.669503    0.000040
 ---------------------------------------------------------------------
                    Distance matrix (angstroms):
                    1          2          3          4          5
     1  C    0.000000
     2  C    1.400599   0.000000
     3  C    2.425829   1.400508   0.000000
     4  C    2.801115   2.425842   1.400612   0.000000
     5  C    2.425842   2.801123   2.425844   1.400512   0.000000
     6  C    1.400525   2.425843   2.801113   2.425829   1.400595
     7  H    1.085568   2.158804   3.409413   3.886682   3.409481
     8  H    2.158803   1.085571   2.158795   3.409489   3.886693
     9  H    3.409475   2.158796   1.085569   2.158810   3.409423
    10  H    3.886683   3.409419   2.158807   1.085568   2.158803
    11  H    3.409427   3.886694   3.409492   2.158801   1.085571
    12  H    2.158806   3.409484   3.886681   3.409412   2.158798
                    6          7          8          9         10
     6  C    0.000000
     7  H    2.158805   0.000000
     8  H    3.409429   2.486060   0.000000
     9  H    3.886682   4.306094   2.486195   0.000000
    10  H    3.409476   4.972250   4.306097   2.486052   0.000000
    11  H    2.158798   4.306099   4.972265   4.306106   2.486209
    12  H    1.085568   2.486199   4.306104   4.972250   4.306095
                   11         12
    11  H    0.000000
    12  H    2.486049   0.000000
 Stoichiometry    C6H6
 Framework group  C1[X(C6H6)]
 Deg. of freedom    30
 Full point group                 C1      NOp   1
 Largest Abelian subgroup         C1      NOp   1
 Largest concise Abelian subgroup C1      NOp   1
                         Standard orientation:                         
 ---------------------------------------------------------------------
 Center     Atomic      Atomic             Coordinates (Angstroms)
 Number     Number       Type             X           Y           Z
 ---------------------------------------------------------------------
      1          6           0       -0.596433   -1.267213   -0.000002
      2          6           0       -1.395663   -0.117035    0.000048
      3          6           0       -0.799233    1.150125   -0.000028
      4          6           0        0.596479    1.267191    0.000007
      5          6           0        1.395659    0.117085    0.000025
      6          6           0        0.799191   -1.150153   -0.000039
      7          1           0       -1.058794   -2.249394   -0.000012
      8          1           0       -2.477429   -0.207834    0.000039
      9          1           0       -1.418637    2.041638   -0.000041
     10          1           0        1.058715    2.249431   -0.000007
     11          1           0        2.477437    0.207749    0.000016
     12          1           0        1.418706   -2.041590   -0.000060
 ---------------------------------------------------------------------
 Rotational constants (GHZ):           5.6591302           5.6590565           2.8295467
 Standard basis: 6-31G (6D, 7F)
 There are    66 symmetry adapted cartesian basis functions of A   symmetry.
 There are    66 symmetry adapted basis functions of A   symmetry.
    66 basis functions,   156 primitive gaussians,    66 cartesian basis functions
    21 alpha electrons       21 beta electrons
       nuclear repulsion energy       202.7415818810 Hartrees.
 NAtoms=   12 NActive=   12 NUniq=   12 SFac= 1.00D+00 NAtFMM=   60 NAOKFM=F Big=F
 Integral buffers will be    131072 words long.
 Raffenetti 2 integral format.
 Two-electron integral symmetry is turned on.
 One-electron integrals computed using PRISM.
 NBasis=    66 RedAO= T EigKep=  7.21D-04  NBF=    66
 NBsUse=    66 1.00D-06 EigRej= -1.00D+00 NBFU=    66
 Initial guess from the checkpoint file:  "benzene.chk"
 B after Tr=     0.000000    0.000000    0.000000
         Rot=    1.000000    0.000000    0.000000    0.000000 Ang=   0.00 deg.
 Keep R1 ints in memory in canonical form, NReq=9551134.
 Requested convergence on RMS density matrix=1.00D-08 within 128 cycles.
 Requested convergence on MAX density matrix=1.00D-06.
 Requested convergence on             energy=1.00D-06.
 No special actions if energy rises.
 SCF Done:  E(RB3LYP) =  -232.198702334     A.U. after    1 cycles
            NFock=  1  Conv=0.57D-08     -V/T= 2.0058
 DoSCS=F DFT=T ScalE2(SS,OS)=  1.000000  1.000000
 Range of M.O.s used for correlation:     1    66
 NBasis=    66 NAE=    21 NBE=    21 NFC=     0 NFV=     0
 NROrb=     66 NOA=    21 NOB=    21 NVA=    45 NVB=    45

 **** Warning!!: The largest alpha MO coefficient is  0.11601004D+02

 Symmetrizing basis deriv contribution to polar:
 IMax=3 JMax=2 DiffMx= 0.00D+00
 G2DrvN: will do    13 centers at a time, making    1 passes.
 Calling FoFCou, ICntrl=  3107 FMM=F I1Cent=   0 AccDes= 0.00D+00.
 End of G2Drv F.D. properties file   721 does not exist.
 End of G2Drv F.D. properties file   722 does not exist.
 End of G2Drv F.D. properties file   788 does not exist.
          IDoAtm=111111111111
          Differentiating once with respect to electric field.
                with respect to dipole field.
          Differentiating once with respect to nuclear coordinates.
 Keep R1 ints in memory in canonical form, NReq=9534829.
          There are    39 degrees of freedom in the 1st order CPHF.  IDoFFX=6 NUNeed=     3.
     36 vectors produced by pass  0 Test12= 2.42D-15 2.56D-09 XBig12= 8.47D+01 5.41D+00.
 AX will form    36 AO Fock derivatives at one time.
     36 vectors produced by pass  1 Test12= 2.42D-15 2.56D-09 XBig12= 1.06D+01 9.01D-01.
     36 vectors produced by pass  2 Test12= 2.42D-15 2.56D-09 XBig12= 5.72D-02 7.83D-02.
     36 vectors produced by pass  3 Test12= 2.42D-15 2.56D-09 XBig12= 6.32D-05 2.67D-03.
     36 vectors produced by pass  4 Test12= 2.42D-15 2.56D-09 XBig12= 1.48D-08 3.73D-05.
     17 vectors produced by pass  5 Test12= 2.42D-15 2.56D-09 XBig12= 5.21D-12 5.17D-07.
      2 vectors produced by pass  6 Test12= 2.42D-15 2.56D-09 XBig12= 2.13D-15 1.23D-08.
 InvSVY:  IOpt=1 It=  1 EMax= 1.07D-14
 Solved reduced A of dimension   199 with    39 vectors.
 Isotropic polarizability for W=    0.000000       53.33 Bohr**3.
 End of Minotr F.D. properties file   721 does not exist.
 End of Minotr F.D. properties file   722 does not exist.
 End of Minotr F.D. properties file   788 does not exist.

 **********************************************************************

            Population analysis using the SCF density.

 **********************************************************************

 Orbital symmetries:
       Occupied  (A) (A) (A) (A) (A) (A) (A) (A) (A) (A) (A) (A)
                 (A) (A) (A) (A) (A) (A) (A) (A) (A)
       Virtual   (A) (A) (A) (A) (A) (A) (A) (A) (A) (A) (A) (A)
                 (A) (A) (A) (A) (A) (A) (A) (A) (A) (A) (A) (A)
                 (A) (A) (A) (A) (A) (A) (A) (A) (A) (A) (A) (A)
                 (A) (A) (A) (A) (A) (A) (A) (A) (A)
 The electronic state is 1-A.
 Alpha  occ. eigenvalues --  -10.18567 -10.18547 -10.18547 -10.18502 -10.18502
 Alpha  occ. eigenvalues --  -10.18483  -0.85112  -0.74387  -0.74387  -0.60112
 Alpha  occ. eigenvalues --   -0.60111  -0.52265  -0.46067  -0.44365  -0.42162
 Alpha  occ. eigenvalues --   -0.42161  -0.36142  -0.34234  -0.34234  -0.24819
 Alpha  occ. eigenvalues --   -0.24818
 Alpha virt. eigenvalues --    0.00373   0.00374   0.09276   0.14394   0.14394
 Alpha virt. eigenvalues --    0.16039   0.18105   0.18105   0.19015   0.30302
 Alpha virt. eigenvalues --    0.30303   0.32080   0.32080   0.49724   0.52624
 Alpha virt. eigenvalues --    0.54134   0.55774   0.59139   0.61088   0.61088
 Alpha virt. eigenvalues --    0.62188   0.62189   0.63411   0.66695   0.66696
 Alpha virt. eigenvalues --    0.66749   0.66750   0.74213   0.84553   0.86013
 Alpha virt. eigenvalues --    0.86014   0.90331   0.90331   0.97048   0.97277
 Alpha virt. eigenvalues --    1.00541   1.00541   1.12696   1.12696   1.19084
 Alpha virt. eigenvalues --    1.19084   1.22129   1.46272   1.46272   1.90693
          Condensed to atoms (all electrons):
               1          2          3          4          5          6
     1  C    4.892326   0.538058  -0.049497  -0.036433  -0.049496   0.538114
     2  C    0.538058   4.892323   0.538117  -0.049496  -0.036432  -0.049496
     3  C   -0.049497   0.538117   4.892330   0.538056  -0.049496  -0.036432
     4  C   -0.036433  -0.049496   0.538056   4.892327   0.538116  -0.049497
     5  C   -0.049496  -0.036432  -0.049496   0.538116   4.892323   0.538058
     6  C    0.538114  -0.049496  -0.036432  -0.049497   0.538058   4.892330
     7  H    0.354572  -0.036342   0.004588   0.000513   0.004587  -0.036341
     8  H   -0.036342   0.354572  -0.036341   0.004587   0.000513   0.004588
     9  H    0.004587  -0.036341   0.354572  -0.036342   0.004588   0.000513
    10  H    0.000513   0.004588  -0.036342   0.354572  -0.036341   0.004587
    11  H    0.004588   0.000513   0.004587  -0.036340   0.354572  -0.036342
    12  H   -0.036340   0.004587   0.000513   0.004588  -0.036342   0.354572
               7          8          9         10         11         12
     1  C    0.354572  -0.036342   0.004587   0.000513   0.004588  -0.036340
     2  C   -0.036342   0.354572  -0.036341   0.004588   0.000513   0.004587
     3  C    0.004588  -0.036341   0.354572  -0.036342   0.004587   0.000513
     4  C    0.000513   0.004587  -0.036342   0.354572  -0.036340   0.004588
     5  C    0.004587   0.000513   0.004588  -0.036341   0.354572  -0.036342
     6  C   -0.036341   0.004588   0.000513   0.004587  -0.036342   0.354572
     7  H    0.593374  -0.004632  -0.000174   0.000011  -0.000174  -0.004632
     8  H   -0.004632   0.593372  -0.004632  -0.000174   0.000011  -0.000174
     9  H   -0.000174  -0.004632   0.593373  -0.004632  -0.000174   0.000011
    10  H    0.000011  -0.000174  -0.004632   0.593374  -0.004632  -0.000174
    11  H   -0.000174   0.000011  -0.000174  -0.004632   0.593372  -0.004632
    12  H   -0.004632  -0.000174   0.000011  -0.000174  -0.004632   0.593373
 Mulliken charges:
               1
     1  C   -0.124649
     2  C   -0.124649
     3  C   -0.124653
     4  C   -0.124650
     5  C   -0.124649
     6  C   -0.124654
     7  H    0.124650
     8  H    0.124652
     9  H    0.124650
    10  H    0.124650
    11  H    0.124652
    12  H    0.124650
 Sum of Mulliken charges =   0.00000
 Mulliken charges with hydrogens summed into heavy atoms:
               1
     1  C    0.000001
     2  C    0.000003
     3  C   -0.000003
     4  C    0.000000
     5  C    0.000003
     6  C   -0.000004
 APT charges:
               1
     1  C   -0.019913
     2  C   -0.019934
     3  C   -0.019945
     4  C   -0.019913
     5  C   -0.019934
     6  C   -0.019946
     7  H    0.019929
     8  H    0.019932
     9  H    0.019932
    10  H    0.019929
    11  H    0.019932
    12  H    0.019932
 Sum of APT charges =   0.00000
 APT charges with hydrogens summed into heavy atoms:
               1
     1  C    0.000016
     2  C   -0.000003
     3  C   -0.000013
     4  C    0.000015
     5  C   -0.000002
     6  C   -0.000013
 Electronic spatial extent (au):  <R**2>=            460.4839
 Charge=              0.0000 electrons
 Dipole moment (field-independent basis, Debye):
    X=              0.0000    Y=              0.0000    Z=              0.0000  Tot=              0.0000
 Quadrupole moment (field-independent basis, Debye-Ang):
   XX=            -31.5721   YY=            -31.5721   ZZ=            -38.9112
   XY=              0.0000   XZ=              0.0000   YZ=              0.0000
 Traceless Quadrupole moment (field-independent basis, Debye-Ang):
   XX=              2.4464   YY=              2.4464   ZZ=             -4.8927
   XY=              0.0000   XZ=              0.0000   YZ=              0.0000
 Octapole moment (field-independent basis, Debye-Ang**2):
  XXX=              0.0003  YYY=              0.0013  ZZZ=             -0.0001  XYY=             -0.0004
  XXY=             -0.0013  XXZ=             -0.0001  XZZ=              0.0000  YZZ=              0.0000
  YYZ=             -0.0003  XYZ=              0.0001
 Hexadecapole moment (field-independent basis, Debye-Ang**3):
 XXXX=           -271.0192 YYYY=           -271.0164 ZZZZ=            -40.4389 XXXY=             -0.0001
 XXXZ=              0.0006 YYYX=              0.0000 YYYZ=             -0.0004 ZZZX=              0.0008
 ZZZY=             -0.0005 XXYY=            -90.3394 XXZZ=            -60.9458 YYZZ=            -60.9453
 XXYZ=             -0.0001 YYXZ=              0.0002 ZZXY=              0.0000
 N-N= 2.027415818810D+02 E-N=-9.435562379442D+02  KE= 2.308496175325D+02
  Exact polarizability:  70.622   0.000  70.622   0.000   0.000  18.736
 Approx polarizability: 115.854   0.000 115.854  -0.001   0.000  23.882
 Calling FoFJK, ICntrl=    100127 FMM=F ISym2X=0 I1Cent= 0 IOpClX= 0 NMat=1 NMatS=1 NMatT=0.
 Full mass-weighted force constant matrix:
 Low frequencies ---   -3.6072    0.0003    0.0006    0.0009    3.7329    7.0603
 Low frequencies ---  422.3550  422.4180  639.5933
 Diagonal vibrational polarizability:
        0.3347662       0.3347958       5.5510693
 Harmonic frequencies (cm**-1), IR intensities (KM/Mole), Raman scattering
 activities (A**4/AMU), depolarization ratios for plane and unpolarized
 incident light, reduced masses (AMU), force constants (mDyne/A),
 and normal coordinates:
                      1                      2                      3
                      A                      A                      A
 Frequencies --    422.3550               422.4180               639.5933
 Red. masses --      2.8444                 2.8446                 6.1489
 Frc consts  --      0.2989                 0.2991                 1.4820
 IR Inten    --      0.0000                 0.0000                 0.0000
  Atom  AN      X      Y      Z        X      Y      Z        X      Y      Z
     1   6     0.00   0.00  -0.20     0.00   0.00  -0.13     0.21   0.18   0.00
     2   6     0.00   0.00  -0.01     0.00   0.00   0.24     0.09   0.16   0.00
     3   6     0.00   0.00   0.21     0.00   0.00  -0.11    -0.23   0.27   0.00
[...]
   D17        0.00004   0.00000   0.00000  -0.00004  -0.00004   0.00000
   D18        3.14155   0.00000   0.00000   0.00004   0.00004   3.14159
   D19       -3.14153   0.00000   0.00000  -0.00007  -0.00007   3.14159
   D20       -0.00001   0.00000   0.00000   0.00001   0.00001   0.00000
   D21       -0.00010   0.00000   0.00000   0.00010   0.00010   0.00000
   D22        3.14156   0.00000   0.00000   0.00004   0.00004  -3.14159
   D23        3.14157   0.00000   0.00000   0.00002   0.00002  -3.14159
   D24        0.00004   0.00000   0.00000  -0.00004  -0.00004   0.00000
         Item               Value     Threshold  Converged?
 Maximum Force            0.000129     0.000450     YES
 RMS     Force            0.000053     0.000300     YES
 Maximum Displacement     0.000198     0.001800     YES
 RMS     Displacement     0.000094     0.001200     YES
 Predicted change in Energy=-1.943926D-07
 Optimization completed.
    -- Stationary point found.
                           ----------------------------
                           !   Optimized Parameters   !
                           ! (Angstroms and Degrees)  !
 --------------------------                            --------------------------
 ! Name  Definition              Value          Derivative Info.                !
 --------------------------------------------------------------------------------
 ! R1    R(1,2)                  1.4006         -DE/DX =   -0.0001              !
 ! R2    R(1,6)                  1.4005         -DE/DX =   -0.0001              !
 ! R3    R(1,7)                  1.0856         -DE/DX =    0.0001              !
 ! R4    R(2,3)                  1.4005         -DE/DX =   -0.0001              !
 ! R5    R(2,8)                  1.0856         -DE/DX =    0.0001              !
 ! R6    R(3,4)                  1.4006         -DE/DX =   -0.0001              !
 ! R7    R(3,9)                  1.0856         -DE/DX =    0.0001              !
 ! R8    R(4,5)                  1.4005         -DE/DX =   -0.0001              !
 ! R9    R(4,10)                 1.0856         -DE/DX =    0.0001              !
 ! R10   R(5,6)                  1.4006         -DE/DX =   -0.0001              !
 ! R11   R(5,11)                 1.0856         -DE/DX =    0.0001              !
 ! R12   R(6,12)                 1.0856         -DE/DX =    0.0001              !
 ! A1    A(2,1,6)              119.9999         -DE/DX =    0.0                 !
 ! A2    A(2,1,7)              119.9968         -DE/DX =    0.0                 !
 ! A3    A(6,1,7)              120.0032         -DE/DX =    0.0                 !
 ! A4    A(1,2,3)              120.0            -DE/DX =    0.0                 !
 ! A5    A(1,2,8)              119.9966         -DE/DX =    0.0                 !
 ! A6    A(3,2,8)              120.0035         -DE/DX =    0.0                 !
 ! A7    A(2,3,4)              120.0001         -DE/DX =    0.0                 !
 ! A8    A(2,3,9)              120.0037         -DE/DX =    0.0                 !
 ! A9    A(4,3,9)              119.9962         -DE/DX =    0.0                 !
 ! A10   A(3,4,5)              120.0            -DE/DX =    0.0                 !
 ! A11   A(3,4,10)             119.9959         -DE/DX =    0.0                 !
 ! A12   A(5,4,10)             120.0041         -DE/DX =    0.0                 !
 ! A13   A(4,5,6)              119.9999         -DE/DX =    0.0                 !
 ! A14   A(4,5,11)             120.0037         -DE/DX =    0.0                 !
 ! A15   A(6,5,11)             119.9963         -DE/DX =    0.0                 !
 ! A16   A(1,6,5)              120.0001         -DE/DX =    0.0                 !
 ! A17   A(1,6,12)             120.0033         -DE/DX =    0.0                 !
 ! A18   A(5,6,12)             119.9966         -DE/DX =    0.0                 !
 ! D1    D(6,1,2,3)              0.0041         -DE/DX =    0.0                 !
 ! D2    D(6,1,2,8)            179.9977         -DE/DX =    0.0                 !
 ! D3    D(7,1,2,3)            180.0042         -DE/DX =    0.0                 !
 ! D4    D(7,1,2,8)             -0.0022         -DE/DX =    0.0                 !
 ! D5    D(2,1,6,5)              0.0025         -DE/DX =    0.0                 !
 ! D6    D(2,1,6,12)           179.9989         -DE/DX =    0.0                 !
 ! D7    D(7,1,6,5)            180.0024         -DE/DX =    0.0                 !
 ! D8    D(7,1,6,12)            -0.0012         -DE/DX =    0.0                 !
 ! D9    D(1,2,3,4)             -0.0076         -DE/DX =    0.0                 !
 ! D10   D(1,2,3,9)           -180.0031         -DE/DX =    0.0                 !
 ! D11   D(8,2,3,4)            179.9989         -DE/DX =    0.0                 !
 ! D12   D(8,2,3,9)              0.0033         -DE/DX =    0.0                 !
 ! D13   D(2,3,4,5)              0.0044         -DE/DX =    0.0                 !
 ! D14   D(2,3,4,10)           180.0027         -DE/DX =    0.0                 !
 ! D15   D(9,3,4,5)            179.9999         -DE/DX =    0.0                 !
 ! D16   D(9,3,4,10)            -0.0017         -DE/DX =    0.0                 !
 ! D17   D(3,4,5,6)              0.0022         -DE/DX =    0.0                 !
 ! D18   D(3,4,5,11)           179.9978         -DE/DX =    0.0                 !
 ! D19   D(10,4,5,6)           180.0039         -DE/DX =    0.0                 !
 ! D20   D(10,4,5,11)           -0.0005         -DE/DX =    0.0                 !
 ! D21   D(4,5,6,1)             -0.0057         -DE/DX =    0.0                 !
 ! D22   D(4,5,6,12)          -180.0021         -DE/DX =    0.0                 !
 ! D23   D(11,5,6,1)          -180.0012         -DE/DX =    0.0                 !
 ! D24   D(11,5,6,12)            0.0023         -DE/DX =    0.0                 !
 --------------------------------------------------------------------------------
 GradGradGradGradGradGradGradGradGradGradGradGradGradGradGradGradGradGrad


 ----------------------------------------------------------------------

 Electric dipole moment (input orientation):
 (Debye = 10**-18 statcoulomb cm , SI units = C m)
                  (au)            (Debye)         (10**-30 SI)
   Tot        0.184161D-04      0.468091D-04      0.156138D-03
   x          0.000000D+00      0.000000D+00      0.000000D+00
   y          0.000000D+00      0.000000D+00      0.000000D+00
   z          0.184161D-04      0.468091D-04      0.156138D-03

 Dipole polarizability, Alpha (input orientation).
 (esu units = cm**3 , SI units = C**2 m**2 J**-1)
 Alpha(0;0):
               (au)            (10**-24 esu)      (10**-40 SI)
   iso        0.533266D+02      0.790219D+01      0.879237D+01
   aniso      0.518854D+02      0.768862D+01      0.855474D+01
   xx         0.706219D+02      0.104651D+02      0.116440D+02
   yx         0.257455D-03      0.381509D-04      0.424486D-04
   yy         0.706215D+02      0.104650D+02      0.116439D+02
   zx        -0.126238D-03     -0.187066D-04     -0.208139D-04
   zy         0.282369D-03      0.418427D-04      0.465563D-04
   zz         0.187364D+02      0.277644D+01      0.308921D+01

 ----------------------------------------------------------------------

 Dipole orientation:
     6         -2.51904808         -0.80870109          0.07253844
     6         -0.55771035         -2.58585435          0.08499425
     6          1.96124002         -1.77714375          0.01256534
     6          2.51901722          0.80878694         -0.07262736
     6          0.55779888          2.58582581         -0.08520882
     6         -1.96130219          1.77707137         -0.01251119
     1         -4.47151038         -1.43565512          0.12881353
     1         -0.99014526         -4.59010344          0.15099118
     1          3.48151484         -3.15446844          0.02231097
     1          4.47156039          1.43549496         -0.12885030
     1          0.98998460          4.59013082         -0.15116850
     1         -3.48140476          3.15458531         -0.02220204

 Electric dipole moment (dipole orientation):
 (Debye = 10**-18 statcoulomb cm , SI units = C m)
                  (au)            (Debye)         (10**-30 SI)
   Tot        0.184272D-04      0.468373D-04      0.156233D-03
   x          0.000000D+00      0.000000D+00      0.000000D+00
   y          0.000000D+00      0.000000D+00      0.000000D+00
   z          0.184272D-04      0.468373D-04      0.156233D-03

 Dipole polarizability, Alpha (dipole orientation).
 (esu units = cm**3 , SI units = C**2 m**2 J**-1)
 Alpha(0;0):
               (au)            (10**-24 esu)      (10**-40 SI)
   iso        0.533266D+02      0.790219D+01      0.879237D+01
   aniso      0.518854D+02      0.768862D+01      0.855474D+01
   xx         0.706020D+02      0.104621D+02      0.116407D+02
   yx        -0.288819D-01     -0.427986D-02     -0.476199D-02
   yy         0.705788D+02      0.104587D+02      0.116369D+02
   zx        -0.101581D+01     -0.150528D+00     -0.167485D+00
   zy        -0.148658D+01     -0.220289D+00     -0.245105D+00
   zz         0.187989D+02      0.278571D+01      0.309952D+01

 ----------------------------------------------------------------------
 1\1\GINC-LSQC03\Freq\RB3LYP\6-31G\C6H6\QINGCHUN\21-Jun-2020\0\\#N Geom
 =AllCheck Guess=TCheck SCRF=Check GenChk RB3LYP/6-31G Freq\\6-31G\\0,1
 \C,-1.3333987034,-0.4284964211,-0.0000186097\C,-0.2955675654,-1.369019
 2549,-0.0000677389\C,1.037778307,-0.940519445,0.0000079291\C,1.3333832
 859,0.4285431862,-0.0000274364\C,0.2956166309,1.3690074005,-0.00004525
 17\C,-1.0378117475,0.9404803498,0.0000189691\H,-2.3668890982,-0.760693
 446,-0.0000077313\H,-0.5247444883,-2.4301231848,-0.0000587799\H,1.8422
 224456,-1.6694424263,0.0000207028\H,2.3669159659,0.7606092783,-0.00001
 36264\H,0.5246613201,2.4301403842,-0.0000362442\H,-1.8421653526,1.6695
 02579,0.0000398176\\Version=ES64L-G16RevA.03\State=1-A\HF=-232.1987023
 \RMSD=5.687e-09\RMSF=1.051e-04\ZeroPoint=0.1018143\Thermal=0.1061229\D
 ipole=-0.0000004,-0.0000005,0.0000184\DipoleDeriv=0.1226338,0.0635116,
 -0.0000028,0.0635287,-0.0546235,0.0000022,-0.000003,0.000015,-0.127749
 4,-0.0653427,0.044958,0.0000029,0.0450149,0.1332897,0.0000096,-0.00000
 35,-0.0000443,-0.1277504,0.0446448,-0.1084791,0.0000113,-0.1085362,0.0
 232679,-0.0000084,-0.000019,0.000027,-0.1277489,0.122633,0.0635214,0.0
 000029,0.063521,-0.0546233,-0.0000008,0.0000161,-0.0000072,-0.1277499,
 -0.0653418,0.0449501,-0.0000035,0.0450244,0.1332898,-0.0000087,-0.0000
 02,0.0000282,-0.1277501,0.0446458,-0.1084703,-0.0000129,-0.1085448,0.0
 232662,0.0000105,0.0000107,-0.0000176,-0.1277491,-0.1136682,-0.0571196
 ,0.0000027,-0.0571377,0.0457068,-0.0000037,0.0000037,-0.0000083,0.1277
 478,0.0553354,-0.0404715,-0.0000033,-0.0404675,-0.1232894,-0.0000064,0
 .0000019,0.0000267,0.1277496,-0.0436127,0.0975825,-0.0000068,0.097573,
 -0.0243418,0.0000034,0.0000098,-0.0000146,0.1277514,-0.1136814,-0.0571
 169,-0.0000015,-0.0571039,0.0457199,0.0000034,-0.0000107,0.0000043,0.1
 277479,0.0553446,-0.0404358,0.0000031,-0.0404626,-0.1232985,0.0000037,
 0.0000009,-0.0000185,0.1277496,-0.0435907,0.0975695,0.0000078,0.097590
 6,-0.0243638,-0.0000047,-0.000005,0.0000093,0.1277514\Polar=70.6219354
 ,0.0002575,70.6214795,-0.0001262,0.0002824,18.7363557\Quadrupole=1.818
 8053,1.8188341,-3.6376394,-0.0000048,-0.0000067,0.000014\PG=C01 [X(C6H
 6)]\NImag=0\\0.74782698,0.02291550,0.68421023,-0.00000986,0.00001554,0
 .14246783,-0.24595527,0.07335069,0.00000831,0.68036554,0.13434349,-0.2
 2550015,-0.00000736,0.01628420,0.75171624,0.00000590,-0.00000532,-0.06
 755368,0.00000752,0.00000906,0.14249109,-0.05476661,0.04646828,-0.0000
 0137,-0.32075345,-0.09136670,-0.00001394,0.72004625,0.00456837,0.05791
 984,0.00000138,-0.03037224,-0.15094411,-0.00000447,-0.03897438,0.71206
 525,0.00000128,0.00000012,0.00963571,-0.00001482,-0.00000388,-0.067550
 13,0.00001682,-0.00000410,0.14247670,-0.00722763,0.01960818,0.00000053
 ,0.00766133,-0.04058928,0.00000121,-0.14069953,-0.07355634,-0.00000006
 ,0.74795754,0.01960629,-0.06194784,-0.00000166,-0.08249593,-0.00448829
 ,0.00000049,-0.01255588,-0.33075383,0.00000637,0.02273226,0.68407777,-
 0.00000037,0.00000095,-0.00912846,-0.00000092,-0.00000232,0.00962657,0
 .00000114,0.00000765,-0.06755375,0.00000634,-0.00000937,0.14246787,0.0
 0765960,-0.08249613,-0.00000024,-0.06525337,0.01388901,-0.00000047,0.0
 5185649,0.05697501,0.00000067,-0.24606868,0.07346100,-0.00000440,0.680
 27349,-0.04058944,-0.00448660,0.00000185,0.01389083,-0.00392096,0.0000
 0018,0.01506910,-0.04869525,0.00000041,0.13445076,-0.22559205,0.000003
 36,0.01607993,0.75180767,-0.00000111,0.00000004,0.00962657,0.00000091,
 -0.00000021,-0.00913043,-0.00000069,0.00000053,0.00963494,-0.00000172,
 0.00000145,-0.06753809,-0.00001050,-0.00000339,0.14249111,-0.14070275,
 -0.01260278,-0.00000035,0.05185550,0.01507054,0.00000030,-0.03129586,-
 0.03349469,-0.00000053,-0.05476739,0.04646671,0.00000172,-0.32056248,-
 0.09130478,0.00001225,0.71982421,-0.07360032,-0.33095733,-0.00000845,0
 .05697644,-0.04869432,-0.00000100,-0.03349655,-0.03788894,-0.00000061,
 0.00456679,0.05792056,-0.00000065,-0.03030739,-0.15093027,0.00000306,-
 0.03899627,0.71228987,-0.00000043,-0.00000707,-0.06753817,-0.00000013,
 -0.00000164,0.00963497,0.00000038,0.00000036,-0.00913163,-0.00000040,0
 .00000011,0.00963571,0.00001320,0.00000317,-0.06756555,-0.00001773,0.0
 0000875,0.14247644,-0.31483388,-0.08170964,0.00000329,-0.01825276,-0.0
 1132365,-0.00000008,-0.00098742,0.00407516,0.00000036,0.00076647,0.000
 61717,-0.00000002,0.00182241,-0.00085307,0.00000014,-0.00281763,0.0022
 6531,0.00000013,0.33374337,-0.08170974,-0.08687130,-0.00000057,0.02379
 608,0.00981772,-0.00000005,0.00306522,-0.00267224,-0.00000041,0.000616
 66,-0.00095433,-0.00000002,0.00015682,-0.00548032,-0.00000047,-0.03285
 433,-0.00561378,0.00000046,0.08749548,0.08963406,0.00000347,-0.0000010
 2,-0.03842716,0.00000049,0.00000097,0.00342487,0.00000049,0.00000005,0
 .00719500,0.00000019,-0.00000077,-0.00032588,-0.00000050,-0.00000024,0
 .00719740,-0.00000061,0.00000052,0.00342575,-0.00000348,0.00000041,0.0
 2652785,0.00832956,0.02641716,0.00000011,-0.07311490,-0.05787802,-0.00
 000042,-0.00259859,-0.03283225,0.00000018,-0.00534211,-0.00054920,-0.0
 0000051,-0.00105820,0.00043626,0.00000002,-0.00335375,0.00283149,0.000
 00009,0.00100602,-0.00055766,0.,0.07490270,-0.00870239,-0.01676354,0.0
 0000010,-0.05787846,-0.32860285,0.00000107,0.00228757,-0.00583331,0.00
 000022,-0.00155939,0.00168580,-0.00000012,0.00043622,0.00086978,0.0000
 0009,0.00384269,-0.00030627,-0.00000015,0.00043277,0.00099371,0.,0.061
 97553,0.34848595,0.00000053,-0.00000197,0.00342475,-0.00000008,0.00000
 443,-0.03843496,-0.00000045,-0.00000177,0.00342664,-0.00000084,-0.0000
 0003,0.00719759,-0.00000037,0.00000040,-0.00032588,0.00000099,0.000000
 19,0.00719500,-0.00000015,0.00000014,-0.00409214,0.00000024,-0.0000011
 6,0.02653503,-0.00395588,-0.00349410,-0.00000059,-0.01815778,0.0239971
 6,-0.00000011,-0.21463729,0.13956831,-0.00000377,0.00820064,-0.0085237
 2,0.00000019,0.00084120,-0.00200943,-0.00000020,0.00000953,-0.00105257
 ,0.00000006,-0.00102639,0.00108934,0.00000009,0.00105033,-0.00045919,0
 .00000020,0.22644550,-0.00248383,0.00029863,-0.00000009,-0.01112348,0.
 00972777,-0.00000021,0.13956920,-0.18707896,0.00000242,0.02659625,-0.0
 1663478,0.00000038,-0.00302046,-0.00450075,0.00000018,-0.00105289,-0.0
 0019810,-0.00000006,-0.00047232,0.00033577,0.00000007,0.00053202,0.000
 94892,0.,-0.14945266,0.19694073,-0.00000055,-0.00000057,0.00719744,-0.
 00000138,0.00000133,0.00342535,-0.00000224,0.00000073,-0.03843032,-0.0
 0000060,0.00000140,0.00342534,0.00000082,0.00000022,0.00719481,-0.0000
 0003,-0.00000049,-0.00032586,-0.00000009,0.00000014,0.00028998,0.00000
 014,0.,-0.00409319,0.00000398,-0.00000268,0.02653007,0.00076639,0.0006
 1715,-0.00000002,0.00182197,-0.00085368,-0.00000007,-0.00282030,0.0022
 6481,-0.00000016,-0.31485390,-0.08168184,-0.00000361,-0.01824987,-0.01
 132299,-0.00000011,-0.00098622,0.00407466,-0.00000021,-0.00009075,-0.0
 0009441,0.00000003,-0.00027190,0.00003677,0.,0.00094267,-0.00046937,0.
 00000006,0.33376233,0.00061691,-0.00095425,0.,0.00015625,-0.00548138,0
 .00000042,-0.03285522,-0.00561503,-0.00000060,-0.08168020,-0.08685082,
 0.00000014,0.02379628,0.00981880,0.00000009,0.00306476,-0.00267196,0.0
 0000022,-0.00009433,0.00017255,-0.00000003,-0.00152491,-0.00041874,-0.
 00000014,0.00052102,0.00105686,-0.00000014,0.08746827,0.08961462,-0.00
 000031,0.00000079,-0.00032588,0.00000056,0.00000020,0.00719476,0.00000
 046,-0.00000057,0.00342507,-0.00000466,0.00000053,-0.03842717,0.000000
 45,-0.00000087,0.00342553,-0.00000046,-0.00000035,0.00719764,-0.000000
 03,0.00000006,-0.00141263,0.00000006,0.,0.00028991,0.00000012,-0.00000
 004,-0.00409095,0.00000389,0.00000025,0.02652786,-0.00534304,-0.000549
 81,0.00000049,-0.00105814,0.00043653,0.,-0.00335336,0.00283094,0.00000
 007,0.00833055,0.02641723,-0.00000002,-0.07310070,-0.05784545,0.000000
 48,-0.00259967,-0.03283292,-0.00000023,-0.00027184,-0.00152491,-0.0000
 0006,0.00018844,-0.00006675,-0.00000003,0.00026237,0.00121645,-0.00000
 007,0.00100595,-0.00055821,-0.00000003,0.07488917,-0.00156004,0.001685
 25,0.00000006,0.00043621,0.00086972,-0.00000003,0.00384211,-0.00030518
 ,0.00000002,-0.00870190,-0.01676073,-0.00000004,-0.05784755,-0.3286161
 2,-0.00000168,0.00228725,-0.00583604,-0.00000019,0.00003677,-0.0004188
 0,-0.00000002,-0.00006683,-0.00010651,0.,-0.00034533,-0.00095290,0.000
 00003,0.00043292,0.00099360,0.00000004,0.06194533,0.34849854,0.0000007
 5,-0.00000001,0.00719495,0.00000037,-0.00000027,-0.00032588,-0.0000006
 9,-0.00000025,0.00719764,-0.00000054,0.00000104,0.00342545,0.00000026,
 -0.00000389,-0.03843507,0.00000032,0.00000152,0.00342593,0.00000001,0.
 00000012,0.00028992,0.00000002,0.,-0.00141277,0.,0.00000003,0.00029001
 ,0.00000013,-0.00000008,-0.00409413,-0.00000041,0.00000178,0.02653516,
 0.00820253,-0.00852449,-0.00000030,0.00084131,-0.00200960,0.00000017,0
 .00000967,-0.00105269,-0.00000004,-0.00395729,-0.00349409,0.00000047,-
 0.01815989,0.02399826,0.00000054,-0.21460351,0.13957132,0.00000526,0.0
 0094240,0.00052145,-0.00000011,0.00026240,-0.00034537,-0.00000002,0.00
 002508,0.00016110,-0.00000005,-0.00102636,0.00108939,-0.00000005,0.001
 05026,-0.00045896,-0.00000019,0.22641339,0.02659519,-0.01663294,-0.000
 00080,-0.00302059,-0.00449938,-0.00000015,-0.00105275,-0.00019825,0.00
 000004,-0.00248379,0.00029855,0.00000004,-0.01112276,0.00972609,0.0000
 0031,0.13957379,-0.18711341,-0.00000395,-0.00046965,0.00105695,0.00000
 007,0.00121640,-0.00095293,-0.00000008,0.00016118,0.00005681,0.0000000
 2,-0.00047228,0.00033575,-0.00000004,0.00053156,0.00094917,0.00000003,
 -0.14945631,0.19697359,0.00000070,-0.00000148,0.00342609,-0.00000083,-
 0.00000030,0.00719746,0.00000009,0.00000046,-0.00032586,0.00000057,0.0
 0000044,0.00719480,0.00000109,-0.00000119,0.00342465,0.00000413,-0.000
 00249,-0.03843023,-0.00000010,0.00000019,-0.00409295,0.00000009,-0.000
 00005,0.00029001,0.00000004,0.,-0.00141267,0.00000009,-0.00000013,0.00
 028998,-0.00000017,0.00000003,-0.00409121,-0.00000570,0.00000452,0.026
 52993\\-0.00022148,-0.00003921,0.00000125,-0.00000388,-0.00021933,-0.0
 0001152,0.00012623,-0.00018757,0.00001020,0.00019625,0.00011743,-0.000
 00255,0.00008307,0.00020187,-0.00000712,-0.00018065,0.00012700,0.00000
 722,0.00012405,0.00003516,0.00000033,0.00002214,0.00012542,0.00000183,
 -0.00009235,0.00008968,-0.00000060,-0.00012074,-0.00004511,0.00000055,
 -0.00003202,-0.00012292,0.00000127,0.00009936,-0.00008243,-0.00000085\
 \\@


 HE WHO LOVES TO READ, AND KNOWS HOW TO REFLECT,
 HAS LAID BY A PERPETUAL FEAST FOR HIS OLD AGE.
 -- UNCLE ESEK, "SCRIBNER'S MONTHLY", SEPT. 1880
 Job cpu time:       0 days  0 hours  3 minutes 39.4 seconds.
 Elapsed time:       0 days  0 hours  0 minutes 55.2 seconds.
 File lengths (MBytes):  RWF=     11 Int=      0 D2E=      0 Chk=      2 Scr=      1
 Normal termination of Gaussian 16 at Sun Jun 21 18:06:14 2020.
