 Entering Gaussian System, Link 0=g16
 Input=chrysene_opt.gjf
 Output=chrysene_opt.log
 Initial command:
 /home/qingchun/software/g16A_modified_by_qingchun/g16/l1.exe "/scratch/qingchun/gaussian/Gau-24357.inp" -scrdir="/scratch/qingchun/gaussian/"
 Entering Link 1 = /home/qingchun/software/g16A_modified_by_qingchun/g16/l1.exe PID=     24358.
  
 Copyright (c) 1988,1990,1992,1993,1995,1998,2003,2009,2016,
            Gaussian, Inc.  All Rights Reserved.
  
 This is part of the Gaussian(R) 16 program.  It is based on
 the Gaussian(R) 09 system (copyright 2009, Gaussian, Inc.),
 the Gaussian(R) 03 system (copyright 2003, Gaussian, Inc.),
 the Gaussian(R) 98 system (copyright 1998, Gaussian, Inc.),
 the Gaussian(R) 94 system (copyright 1995, Gaussian, Inc.),
 the Gaussian 92(TM) system (copyright 1992, Gaussian, Inc.),
 the Gaussian 90(TM) system (copyright 1990, Gaussian, Inc.),
 the Gaussian 88(TM) system (copyright 1988, Gaussian, Inc.),
 the Gaussian 86(TM) system (copyright 1986, Carnegie Mellon
 University), and the Gaussian 82(TM) system (copyright 1983,
 Carnegie Mellon University). Gaussian is a federally registered
 trademark of Gaussian, Inc.
  
 This software contains proprietary and confidential information,
 including trade secrets, belonging to Gaussian, Inc.
  
 This software is provided under written license and may be
 used, copied, transmitted, or stored only in accord with that
 written license.
  
 The following legend is applicable only to US Government
 contracts under FAR:
  
                    RESTRICTED RIGHTS LEGEND
  
 Use, reproduction and disclosure by the US Government is
 subject to restrictions as set forth in subparagraphs (a)
 and (c) of the Commercial Computer Software - Restricted
 Rights clause in FAR 52.227-19.
  
 Gaussian, Inc.
 340 Quinnipiac St., Bldg. 40, Wallingford CT 06492
  
  
 ---------------------------------------------------------------
 Warning -- This program may not be used in any manner that
 competes with the business of Gaussian, Inc. or will provide
 assistance to any competitor of Gaussian, Inc.  The licensee
 of this program is prohibited from giving any competitor of
 Gaussian, Inc. access to this program.  By using this program,
 the user acknowledges that Gaussian, Inc. is engaged in the
 business of creating and licensing software in the field of
 computational chemistry and represents and warrants to the
 licensee that it is not a competitor of Gaussian, Inc. and that
 it will not use this program in any manner prohibited above.
 ---------------------------------------------------------------
  

 Cite this work as:
 Gaussian 16, Revision A.03,
 M. J. Frisch, G. W. Trucks, H. B. Schlegel, G. E. Scuseria, 
 M. A. Robb, J. R. Cheeseman, G. Scalmani, V. Barone, 
 G. A. Petersson, H. Nakatsuji, X. Li, M. Caricato, A. V. Marenich, 
 J. Bloino, B. G. Janesko, R. Gomperts, B. Mennucci, H. P. Hratchian, 
 J. V. Ortiz, A. F. Izmaylov, J. L. Sonnenberg, D. Williams-Young, 
 F. Ding, F. Lipparini, F. Egidi, J. Goings, B. Peng, A. Petrone, 
 T. Henderson, D. Ranasinghe, V. G. Zakrzewski, J. Gao, N. Rega, 
 G. Zheng, W. Liang, M. Hada, M. Ehara, K. Toyota, R. Fukuda, 
 J. Hasegawa, M. Ishida, T. Nakajima, Y. Honda, O. Kitao, H. Nakai, 
 T. Vreven, K. Throssell, J. A. Montgomery, Jr., J. E. Peralta, 
 F. Ogliaro, M. J. Bearpark, J. J. Heyd, E. N. Brothers, K. N. Kudin, 
 V. N. Staroverov, T. A. Keith, R. Kobayashi, J. Normand, 
 K. Raghavachari, A. P. Rendell, J. C. Burant, S. S. Iyengar, 
 J. Tomasi, M. Cossi, J. M. Millam, M. Klene, C. Adamo, R. Cammi, 
 J. W. Ochterski, R. L. Martin, K. Morokuma, O. Farkas, 
 J. B. Foresman, and D. J. Fox, Gaussian, Inc., Wallingford CT, 2016.
 
 ******************************************
 Gaussian 16:  ES64L-G16RevA.03 25-Dec-2016
                21-Jun-2020 
 ******************************************
 %nprocshared=4
 Will use up to    4 processors via shared memory.
 %mem=30GB
 %chk=chrysene_opt.chk
 ----------------------
 # opt freq b3lyp/6-31G
 ----------------------
 1/18=20,19=15,26=3,38=1/1,3;
 2/9=110,12=2,17=6,18=5,40=1/2;
 3/5=1,6=6,11=2,25=1,30=1,71=1,74=-5/1,2,3;
 4//1;
 5/5=2,38=5/2;
 6/7=2,8=2,9=2,10=2,28=1/1;
 7//1,2,3,16;
 1/18=20,19=15,26=3/3(2);
 2/9=110/2;
 99//99;
 2/9=110/2;
 3/5=1,6=6,11=2,25=1,30=1,71=1,74=-5/1,2,3;
 4/5=5,16=3,69=1/1;
 5/5=2,38=5/2;
 7//1,2,3,16;
 1/18=20,19=15,26=3/3(-5);
 2/9=110/2;
 6/7=2,8=2,9=2,10=2,19=2,28=1/1;
 99/9=1/99;
 -----
 6-31G
 -----
 Symbolic Z-matrix:
 Charge =  0 Multiplicity = 1
 C                     0.       -0.77      0. 
 C                     0.        0.77      0. 
 C                    -1.334    -1.54      0. 
 C                     1.334    -1.54      0. 
 C                    -1.334     1.54      0. 
 C                     1.334     1.54      0. 
 C                    -2.667    -0.77      0. 
 C                     2.667    -0.77      0. 
 C                    -2.667     0.77      0. 
 C                     2.667     0.77      0. 
 C                    -4.001    -1.54      0. 
 C                    -4.001    -3.08      0. 
 C                    -2.668    -3.85      0. 
 C                    -1.334    -3.08      0. 
 C                     4.001     1.54      0. 
 C                     4.001     3.08      0. 
 C                     2.667     3.85      0. 
 C                     1.334     3.08      0. 
 H                     1.334    -3.08      0. 
 H                    -1.334     3.08      0. 
 H                     4.001    -1.54      0. 
 H                    -4.001     1.54      0. 
 H                    -5.335    -0.77      0. 
 H                    -5.335    -3.85      0. 
 H                    -2.668    -5.39      0. 
 H                     0.       -3.85      0. 
 H                     5.335     0.77      0. 
 H                     5.335     3.85      0. 
 H                     2.667     5.39      0. 
 H                     0.        3.85      0. 
 
 Add virtual bond connecting atoms H25        and C13        Dist= 2.91D+00.
 Add virtual bond connecting atoms H29        and C17        Dist= 2.91D+00.
 Add virtual bond connecting atoms H19        and C4         Dist= 2.91D+00.
 Add virtual bond connecting atoms H20        and C5         Dist= 2.91D+00.
 Add virtual bond connecting atoms H23        and C11        Dist= 2.91D+00.
 Add virtual bond connecting atoms H27        and C15        Dist= 2.91D+00.
 Add virtual bond connecting atoms H24        and C12        Dist= 2.91D+00.
 Add virtual bond connecting atoms H28        and C16        Dist= 2.91D+00.
 Add virtual bond connecting atoms H21        and C8         Dist= 2.91D+00.
 Add virtual bond connecting atoms H22        and C9         Dist= 2.91D+00.
 Add virtual bond connecting atoms H26        and C14        Dist= 2.91D+00.
 Add virtual bond connecting atoms H26        and H19        Dist= 2.91D+00.
 Add virtual bond connecting atoms H30        and C18        Dist= 2.91D+00.
 Add virtual bond connecting atoms H30        and H20        Dist= 2.91D+00.

 GradGradGradGradGradGradGradGradGradGradGradGradGradGradGradGradGradGrad
 Berny optimization.
 Initialization pass.
                           ----------------------------
                           !    Initial Parameters    !
                           ! (Angstroms and Degrees)  !
 --------------------------                            --------------------------
 ! Name  Definition              Value          Derivative Info.                !
 --------------------------------------------------------------------------------
 ! R1    R(1,2)                  1.54           estimate D2E/DX2                !
 ! R2    R(1,3)                  1.5403         estimate D2E/DX2                !
 ! R3    R(1,4)                  1.5403         estimate D2E/DX2                !
 ! R4    R(2,5)                  1.5403         estimate D2E/DX2                !
 ! R5    R(2,6)                  1.5403         estimate D2E/DX2                !
 ! R6    R(3,7)                  1.5394         estimate D2E/DX2                !
 ! R7    R(3,14)                 1.54           estimate D2E/DX2                !
 ! R8    R(4,8)                  1.5394         estimate D2E/DX2                !
 ! R9    R(4,19)                 1.54           estimate D2E/DX2                !
 ! R10   R(5,9)                  1.5394         estimate D2E/DX2                !
 ! R11   R(5,20)                 1.54           estimate D2E/DX2                !
 ! R12   R(6,10)                 1.5394         estimate D2E/DX2                !
 ! R13   R(6,18)                 1.54           estimate D2E/DX2                !
 ! R14   R(7,9)                  1.54           estimate D2E/DX2                !
 ! R15   R(7,11)                 1.5403         estimate D2E/DX2                !
 ! R16   R(8,10)                 1.54           estimate D2E/DX2                !
 ! R17   R(8,21)                 1.5403         estimate D2E/DX2                !
 ! R18   R(9,22)                 1.5403         estimate D2E/DX2                !
 ! R19   R(10,15)                1.5403         estimate D2E/DX2                !
 ! R20   R(11,12)                1.54           estimate D2E/DX2                !
 ! R21   R(11,23)                1.5403         estimate D2E/DX2                !
 ! R22   R(12,13)                1.5394         estimate D2E/DX2                !
 ! R23   R(12,24)                1.5403         estimate D2E/DX2                !
 ! R24   R(13,14)                1.5403         estimate D2E/DX2                !
 ! R25   R(13,25)                1.54           estimate D2E/DX2                !
 ! R26   R(14,26)                1.5403         estimate D2E/DX2                !
 ! R27   R(15,16)                1.54           estimate D2E/DX2                !
 ! R28   R(15,27)                1.5403         estimate D2E/DX2                !
 ! R29   R(16,17)                1.5403         estimate D2E/DX2                !
 ! R30   R(16,28)                1.5403         estimate D2E/DX2                !
 ! R31   R(17,18)                1.5394         estimate D2E/DX2                !
 ! R32   R(17,29)                1.54           estimate D2E/DX2                !
 ! R33   R(18,30)                1.5403         estimate D2E/DX2                !
 ! R34   R(19,26)                1.5403         estimate D2E/DX2                !
 ! R35   R(20,30)                1.5403         estimate D2E/DX2                !
 ! A1    A(2,1,3)              119.994          estimate D2E/DX2                !
 ! A2    A(2,1,4)              119.994          estimate D2E/DX2                !
 ! A3    A(3,1,4)              120.0119         estimate D2E/DX2                !
 ! A4    A(1,2,5)              119.994          estimate D2E/DX2                !
 ! A5    A(1,2,6)              119.994          estimate D2E/DX2                !
 ! A6    A(5,2,6)              120.0119         estimate D2E/DX2                !
 ! A7    A(1,3,7)              119.9933         estimate D2E/DX2                !
 ! A8    A(1,3,14)             119.994          estimate D2E/DX2                !
 ! A9    A(7,3,14)             120.0126         estimate D2E/DX2                !
 ! A10   A(1,4,8)              119.9933         estimate D2E/DX2                !
 ! A11   A(1,4,19)             119.994          estimate D2E/DX2                !
 ! A12   A(8,4,19)             120.0126         estimate D2E/DX2                !
 ! A13   A(2,5,9)              119.9933         estimate D2E/DX2                !
 ! A14   A(2,5,20)             119.994          estimate D2E/DX2                !
 ! A15   A(9,5,20)             120.0126         estimate D2E/DX2                !
 ! A16   A(2,6,10)             119.9933         estimate D2E/DX2                !
 ! A17   A(2,6,18)             119.994          estimate D2E/DX2                !
 ! A18   A(10,6,18)            120.0126         estimate D2E/DX2                !
 ! A19   A(3,7,9)              120.0126         estimate D2E/DX2                !
 ! A20   A(3,7,11)             119.9933         estimate D2E/DX2                !
 ! A21   A(9,7,11)             119.994          estimate D2E/DX2                !
 ! A22   A(4,8,10)             120.0126         estimate D2E/DX2                !
 ! A23   A(4,8,21)             119.9933         estimate D2E/DX2                !
 ! A24   A(10,8,21)            119.994          estimate D2E/DX2                !
 ! A25   A(5,9,7)              120.0126         estimate D2E/DX2                !
 ! A26   A(5,9,22)             119.9933         estimate D2E/DX2                !
 ! A27   A(7,9,22)             119.994          estimate D2E/DX2                !
 ! A28   A(6,10,8)             120.0126         estimate D2E/DX2                !
 ! A29   A(6,10,15)            119.9933         estimate D2E/DX2                !
 ! A30   A(8,10,15)            119.994          estimate D2E/DX2                !
 ! A31   A(7,11,12)            119.994          estimate D2E/DX2                !
 ! A32   A(7,11,23)            120.0119         estimate D2E/DX2                !
 ! A33   A(12,11,23)           119.994          estimate D2E/DX2                !
 ! A34   A(11,12,13)           120.0126         estimate D2E/DX2                !
 ! A35   A(11,12,24)           119.994          estimate D2E/DX2                !
 ! A36   A(13,12,24)           119.9933         estimate D2E/DX2                !
 ! A37   A(12,13,14)           119.9933         estimate D2E/DX2                !
 ! A38   A(12,13,25)           120.0126         estimate D2E/DX2                !
 ! A39   A(14,13,25)           119.994          estimate D2E/DX2                !
 ! A40   A(3,14,13)            119.994          estimate D2E/DX2                !
 ! A41   A(3,14,26)            119.994          estimate D2E/DX2                !
 ! A42   A(13,14,26)           120.0119         estimate D2E/DX2                !
 ! A43   A(10,15,16)           119.994          estimate D2E/DX2                !
 ! A44   A(10,15,27)           120.0119         estimate D2E/DX2                !
 ! A45   A(16,15,27)           119.994          estimate D2E/DX2                !
 ! A46   A(15,16,17)           119.994          estimate D2E/DX2                !
 ! A47   A(15,16,28)           119.994          estimate D2E/DX2                !
 ! A48   A(17,16,28)           120.0119         estimate D2E/DX2                !
 ! A49   A(16,17,18)           119.9933         estimate D2E/DX2                !
 ! A50   A(16,17,29)           119.994          estimate D2E/DX2                !
 ! A51   A(18,17,29)           120.0126         estimate D2E/DX2                !
 ! A52   A(6,18,17)            120.0126         estimate D2E/DX2                !
 ! A53   A(6,18,30)            119.994          estimate D2E/DX2                !
 ! A54   A(17,18,30)           119.9933         estimate D2E/DX2                !
 ! A55   A(4,19,26)            119.994          estimate D2E/DX2                !
 ! A56   A(5,20,30)            119.994          estimate D2E/DX2                !
 ! A57   A(14,26,19)           120.0119         estimate D2E/DX2                !
 ! A58   A(18,30,20)           120.0119         estimate D2E/DX2                !
 ! D1    D(3,1,2,5)              0.0            estimate D2E/DX2                !
 ! D2    D(3,1,2,6)            180.0            estimate D2E/DX2                !
 ! D3    D(4,1,2,5)            180.0            estimate D2E/DX2                !
 ! D4    D(4,1,2,6)              0.0            estimate D2E/DX2                !
 ! D5    D(2,1,3,7)              0.0            estimate D2E/DX2                !
 ! D6    D(2,1,3,14)           180.0            estimate D2E/DX2                !
 ! D7    D(4,1,3,7)            180.0            estimate D2E/DX2                !
 ! D8    D(4,1,3,14)             0.0            estimate D2E/DX2                !
 ! D9    D(2,1,4,8)              0.0            estimate D2E/DX2                !
 ! D10   D(2,1,4,19)           180.0            estimate D2E/DX2                !
 ! D11   D(3,1,4,8)            180.0            estimate D2E/DX2                !
 ! D12   D(3,1,4,19)             0.0            estimate D2E/DX2                !
 ! D13   D(1,2,5,9)              0.0            estimate D2E/DX2                !
 ! D14   D(1,2,5,20)           180.0            estimate D2E/DX2                !
 ! D15   D(6,2,5,9)            180.0            estimate D2E/DX2                !
 ! D16   D(6,2,5,20)             0.0            estimate D2E/DX2                !
 ! D17   D(1,2,6,10)             0.0            estimate D2E/DX2                !
 ! D18   D(1,2,6,18)           180.0            estimate D2E/DX2                !
 ! D19   D(5,2,6,10)           180.0            estimate D2E/DX2                !
 ! D20   D(5,2,6,18)             0.0            estimate D2E/DX2                !
 ! D21   D(1,3,7,9)              0.0            estimate D2E/DX2                !
 ! D22   D(1,3,7,11)           180.0            estimate D2E/DX2                !
 ! D23   D(14,3,7,9)           180.0            estimate D2E/DX2                !
 ! D24   D(14,3,7,11)            0.0            estimate D2E/DX2                !
 ! D25   D(1,3,14,13)          180.0            estimate D2E/DX2                !
 ! D26   D(1,3,14,26)            0.0            estimate D2E/DX2                !
 ! D27   D(7,3,14,13)            0.0            estimate D2E/DX2                !
 ! D28   D(7,3,14,26)          180.0            estimate D2E/DX2                !
 ! D29   D(1,4,8,10)             0.0            estimate D2E/DX2                !
 ! D30   D(1,4,8,21)           180.0            estimate D2E/DX2                !
 ! D31   D(19,4,8,10)          180.0            estimate D2E/DX2                !
 ! D32   D(19,4,8,21)            0.0            estimate D2E/DX2                !
 ! D33   D(1,4,19,26)            0.0            estimate D2E/DX2                !
 ! D34   D(8,4,19,26)          180.0            estimate D2E/DX2                !
 ! D35   D(2,5,9,7)              0.0            estimate D2E/DX2                !
 ! D36   D(2,5,9,22)           180.0            estimate D2E/DX2                !
 ! D37   D(20,5,9,7)           180.0            estimate D2E/DX2                !
 ! D38   D(20,5,9,22)            0.0            estimate D2E/DX2                !
 ! D39   D(2,5,20,30)            0.0            estimate D2E/DX2                !
 ! D40   D(9,5,20,30)          180.0            estimate D2E/DX2                !
 ! D41   D(2,6,10,8)             0.0            estimate D2E/DX2                !
 ! D42   D(2,6,10,15)          180.0            estimate D2E/DX2                !
 ! D43   D(18,6,10,8)          180.0            estimate D2E/DX2                !
 ! D44   D(18,6,10,15)           0.0            estimate D2E/DX2                !
 ! D45   D(2,6,18,17)          180.0            estimate D2E/DX2                !
 ! D46   D(2,6,18,30)            0.0            estimate D2E/DX2                !
 ! D47   D(10,6,18,17)           0.0            estimate D2E/DX2                !
 ! D48   D(10,6,18,30)         180.0            estimate D2E/DX2                !
 ! D49   D(3,7,9,5)              0.0            estimate D2E/DX2                !
 ! D50   D(3,7,9,22)           180.0            estimate D2E/DX2                !
 ! D51   D(11,7,9,5)           180.0            estimate D2E/DX2                !
 ! D52   D(11,7,9,22)            0.0            estimate D2E/DX2                !
 ! D53   D(3,7,11,12)            0.0            estimate D2E/DX2                !
 ! D54   D(3,7,11,23)          180.0            estimate D2E/DX2                !
 ! D55   D(9,7,11,12)          180.0            estimate D2E/DX2                !
 ! D56   D(9,7,11,23)            0.0            estimate D2E/DX2                !
 ! D57   D(4,8,10,6)             0.0            estimate D2E/DX2                !
 ! D58   D(4,8,10,15)          180.0            estimate D2E/DX2                !
 ! D59   D(21,8,10,6)          180.0            estimate D2E/DX2                !
 ! D60   D(21,8,10,15)           0.0            estimate D2E/DX2                !
 ! D61   D(6,10,15,16)           0.0            estimate D2E/DX2                !
 ! D62   D(6,10,15,27)         180.0            estimate D2E/DX2                !
 ! D63   D(8,10,15,16)         180.0            estimate D2E/DX2                !
 ! D64   D(8,10,15,27)           0.0            estimate D2E/DX2                !
 ! D65   D(7,11,12,13)           0.0            estimate D2E/DX2                !
 ! D66   D(7,11,12,24)         180.0            estimate D2E/DX2                !
 ! D67   D(23,11,12,13)        180.0            estimate D2E/DX2                !
 ! D68   D(23,11,12,24)          0.0            estimate D2E/DX2                !
 ! D69   D(11,12,13,14)          0.0            estimate D2E/DX2                !
 ! D70   D(11,12,13,25)        180.0            estimate D2E/DX2                !
 ! D71   D(24,12,13,14)        180.0            estimate D2E/DX2                !
 ! D72   D(24,12,13,25)          0.0            estimate D2E/DX2                !
 ! D73   D(12,13,14,3)           0.0            estimate D2E/DX2                !
 ! D74   D(12,13,14,26)        180.0            estimate D2E/DX2                !
 ! D75   D(25,13,14,3)         180.0            estimate D2E/DX2                !
 ! D76   D(25,13,14,26)          0.0            estimate D2E/DX2                !
 ! D77   D(3,14,26,19)           0.0            estimate D2E/DX2                !
 ! D78   D(13,14,26,19)        180.0            estimate D2E/DX2                !
 ! D79   D(10,15,16,17)          0.0            estimate D2E/DX2                !
 ! D80   D(10,15,16,28)        180.0            estimate D2E/DX2                !
 ! D81   D(27,15,16,17)        180.0            estimate D2E/DX2                !
 ! D82   D(27,15,16,28)          0.0            estimate D2E/DX2                !
 ! D83   D(15,16,17,18)          0.0            estimate D2E/DX2                !
 ! D84   D(15,16,17,29)        180.0            estimate D2E/DX2                !
 ! D85   D(28,16,17,18)        180.0            estimate D2E/DX2                !
 ! D86   D(28,16,17,29)          0.0            estimate D2E/DX2                !
 ! D87   D(16,17,18,6)           0.0            estimate D2E/DX2                !
 ! D88   D(16,17,18,30)        180.0            estimate D2E/DX2                !
 ! D89   D(29,17,18,6)         180.0            estimate D2E/DX2                !
 ! D90   D(29,17,18,30)          0.0            estimate D2E/DX2                !
 ! D91   D(6,18,30,20)           0.0            estimate D2E/DX2                !
 ! D92   D(17,18,30,20)        180.0            estimate D2E/DX2                !
 ! D93   D(4,19,26,14)           0.0            estimate D2E/DX2                !
 ! D94   D(5,20,30,18)           0.0            estimate D2E/DX2                !
 --------------------------------------------------------------------------------
 Trust Radius=3.00D-01 FncErr=1.00D-07 GrdErr=1.00D-06 EigMax=2.50D+02 EigMin=1.00D-04
 Number of steps in this run=    180 maximum allowed number of steps=    180.
 GradGradGradGradGradGradGradGradGradGradGradGradGradGradGradGradGradGrad

                          Input orientation:                          
 ---------------------------------------------------------------------
 Center     Atomic      Atomic             Coordinates (Angstroms)
 Number     Number       Type             X           Y           Z
 ---------------------------------------------------------------------
      1          6           0        0.000000   -0.770000    0.000000
      2          6           0        0.000000    0.770000    0.000000
      3          6           0       -1.334000   -1.540000    0.000000
      4          6           0        1.334000   -1.540000    0.000000
      5          6           0       -1.334000    1.540000    0.000000
      6          6           0        1.334000    1.540000    0.000000
      7          6           0       -2.667000   -0.770000    0.000000
      8          6           0        2.667000   -0.770000    0.000000
      9          6           0       -2.667000    0.770000    0.000000
     10          6           0        2.667000    0.770000    0.000000
     11          6           0       -4.001000   -1.540000    0.000000
     12          6           0       -4.001000   -3.080000    0.000000
     13          6           0       -2.668000   -3.850000    0.000000
     14          6           0       -1.334000   -3.080000    0.000000
     15          6           0        4.001000    1.540000    0.000000
     16          6           0        4.001000    3.080000    0.000000
     17          6           0        2.667000    3.850000    0.000000
     18          6           0        1.334000    3.080000    0.000000
     19          1           0        1.334000   -3.080000    0.000000
     20          1           0       -1.334000    3.080000    0.000000
     21          1           0        4.001000   -1.540000    0.000000
     22          1           0       -4.001000    1.540000    0.000000
     23          1           0       -5.335000   -0.770000    0.000000
     24          1           0       -5.335000   -3.850000    0.000000
     25          1           0       -2.668000   -5.390000    0.000000
     26          1           0        0.000000   -3.850000    0.000000
     27          1           0        5.335000    0.770000    0.000000
     28          1           0        5.335000    3.850000    0.000000
     29          1           0        2.667000    5.390000    0.000000
     30          1           0        0.000000    3.850000    0.000000
 ---------------------------------------------------------------------
                    Distance matrix (angstroms):
                    1          2          3          4          5
     1  C    0.000000
     2  C    1.540000   0.000000
     3  C    1.540278   2.667519   0.000000
     4  C    1.540278   2.667519   2.668000   0.000000
     5  C    2.667519   1.540278   3.080000   4.074877   0.000000
     6  C    2.667519   1.540278   4.074877   3.080000   2.668000
     7  C    2.667000   3.079690   1.539412   4.074420   2.667019
     8  C    2.667000   3.079690   4.074420   1.539412   4.619968
     9  C    3.079690   2.667000   2.667019   4.619968   1.539412
    10  C    3.079690   2.667000   4.619968   2.667019   4.074420
    11  C    4.074420   4.619968   2.667000   5.335000   4.074223
    12  C    4.619968   5.552522   3.079690   5.552821   5.334537
    13  C    4.074877   5.335037   2.667519   4.620834   5.552626
    14  C    2.667519   4.074562   1.540000   3.080556   4.620000
    15  C    4.619968   4.074420   6.160246   4.074223   5.335000
    16  C    5.552522   4.619968   7.057381   5.334537   5.552821
    17  C    5.334537   4.074223   6.712682   5.552386   4.619968
    18  C    4.074562   2.667519   5.335037   4.620000   3.080556
    19  H    2.667519   4.074562   3.080556   1.540000   5.335037
    20  H    4.074562   2.667519   4.620000   5.335037   1.540000
    21  H    4.074420   4.619968   5.335000   2.667000   6.160246
    22  H    4.619968   4.074420   4.074223   6.160246   2.667000
    23  H    5.335000   5.552821   4.074420   6.713305   4.619968
    24  H    6.160246   7.057381   4.619968   7.057738   6.712682
    25  H    5.335037   6.712959   4.074562   5.553243   7.057227
    26  H    3.080000   4.620000   2.667519   2.667519   5.552626
    27  H    5.552821   5.335000   7.057738   4.619968   6.713305
    28  H    7.057381   6.160246   8.574827   6.712682   7.057738
    29  H    6.712562   5.334537   8.002056   7.057038   5.552522
    30  H    4.620000   3.080000   5.552626   5.552626   2.667519
                    6          7          8          9         10
     6  C    0.000000
     7  C    4.619968   0.000000
     8  C    2.667019   5.334000   0.000000
     9  C    4.074420   1.540000   5.551861   0.000000
    10  C    1.539412   5.551861   1.540000   5.334000   0.000000
    11  C    6.160246   1.540278   6.712311   2.667519   7.056793
    12  C    7.057381   2.667519   7.056793   4.074562   7.699657
    13  C    6.713278   3.080000   6.160246   4.620000   7.057381
    14  C    5.335037   2.667019   4.619968   4.074235   5.552522
    15  C    2.667000   7.056793   2.667519   6.712311   1.540278
    16  C    3.079690   7.699657   4.074562   7.056793   2.667519
    17  C    2.667019   7.056625   4.620000   6.159380   3.080000
    18  C    1.540000   5.552522   4.074235   4.619968   2.667019
    19  H    4.620000   4.619968   2.667019   5.552522   4.074235
    20  H    3.080556   4.074235   5.552522   2.667019   4.619968
    21  H    4.074223   6.712311   1.540278   7.056793   2.667519
    22  H    5.335000   2.667519   7.056793   1.540278   6.712311
    23  H    7.057738   2.668000   8.002000   3.080556   8.148841
    24  H    8.574827   4.074877   8.574287   5.335037   9.239935
    25  H    8.002556   4.620000   7.057381   6.160000   8.149100
    26  H    5.552626   4.074223   4.074223   5.334537   5.334537
    27  H    4.074420   8.148841   3.080556   8.002000   2.668000
    28  H    4.619968   9.239935   5.335037   8.574287   4.074877
    29  H    4.074235   8.148445   6.160000   7.056625   4.620000
    30  H    2.667519   5.334537   5.334537   4.074223   4.074223
                   11         12         13         14         15
    11  C    0.000000
    12  C    1.540000   0.000000
    13  C    2.667019   1.539412   0.000000
    14  C    3.079690   2.667000   1.540278   0.000000
    15  C    8.574287   9.239935   8.574827   7.057381   0.000000
    16  C    9.239935  10.098396   9.617716   8.149100   1.540000
    17  C    8.574049   9.617023   9.367616   8.002056   2.667519
    18  C    7.057381   8.149100   8.002556   6.712959   3.079690
    19  H    5.552821   5.335000   4.075402   2.668000   5.334537
    20  H    5.334537   6.712562   7.057227   6.160000   5.552821
    21  H    8.002000   8.148841   7.057738   5.552821   3.080000
    22  H    3.080000   4.620000   5.552386   5.334537   8.002000
    23  H    1.540278   2.667519   4.074223   4.619968   9.617536
    24  H    2.667519   1.540278   2.667000   4.074420  10.780213
    25  H    4.074235   2.667019   1.540000   2.667519   9.617716
    26  H    4.619968   4.074420   2.668000   1.540278   6.712682
    27  H    9.617536  10.098683   9.240801   7.700523   1.540278
    28  H   10.780213  11.626943  11.105765   9.617716   2.667519
    29  H    9.617023  10.779755  10.669575   9.367438   4.074562
    30  H    6.712682   8.002056   8.149124   7.057227   4.619968
                   16         17         18         19         20
    16  C    0.000000
    17  C    1.540278   0.000000
    18  C    2.667000   1.539412   0.000000
    19  H    6.712562   7.057038   6.160000   0.000000
    20  H    5.335000   4.074420   2.668000   6.712959   0.000000
    21  H    4.620000   5.552626   5.334537   3.079690   7.057381
    22  H    8.148841   7.056793   5.552821   7.057381   3.079690
    23  H   10.098683   9.239935   7.700523   7.057738   5.552522
    24  H   11.626943  11.105044   9.617716   6.713305   8.002056
    25  H   10.780374  10.669575   9.367865   4.620834   8.574407
    26  H    8.002056   8.148797   7.057227   1.540278   7.057227
    27  H    2.667519   4.074877   4.619968   5.552522   7.057738
    28  H    1.540278   2.668000   4.074420   8.002056   6.713305
    29  H    2.667519   1.540000   2.667019   8.574252   4.619968
    30  H    4.074420   2.667000   1.540278   7.057227   1.540278
                   21         22         23         24         25
    21  H    0.000000
    22  H    8.574287   0.000000
    23  H    9.367700   2.667519   0.000000
    24  H    9.617536   5.552626   3.080000   0.000000
    25  H    7.700523   7.057038   5.334537   3.079690   0.000000
    26  H    4.619968   6.712682   6.160246   5.335000   3.080556
    27  H    2.667519   9.367700  10.780561  11.627265  10.099189
    28  H    5.552626   9.617536  11.627265  13.158226  12.223977
    29  H    7.057227   7.699657  10.098396  12.223322  12.027910
    30  H    6.712682   4.619968   7.057381   9.367616   9.617475
                   26         27         28         29         30
    26  H    0.000000
    27  H    7.057381   0.000000
    28  H    9.367616   3.080000   0.000000
    29  H    9.617198   5.335037   3.080556   0.000000
    30  H    7.700000   6.160246   5.335000   3.079690   0.000000
 Stoichiometry    C18H12
 Framework group  CS[SG(C18H12)]
 Deg. of freedom    57
 Full point group                 CS      NOp   2
 Largest Abelian subgroup         CS      NOp   2
 Largest concise Abelian subgroup C1      NOp   1
                         Standard orientation:                         
 ---------------------------------------------------------------------
 Center     Atomic      Atomic             Coordinates (Angstroms)
 Number     Number       Type             X           Y           Z
 ---------------------------------------------------------------------
      1          6           0       -0.770000    0.000058    0.000000
      2          6           0        0.770000    0.000058    0.000000
      3          6           0       -1.540000   -1.333942    0.000000
      4          6           0       -1.540000    1.334058    0.000000
      5          6           0        1.540000   -1.333942    0.000000
      6          6           0        1.540000    1.334058    0.000000
      7          6           0       -0.770000   -2.666942    0.000000
      8          6           0       -0.770000    2.667058    0.000000
      9          6           0        0.770000   -2.666942    0.000000
     10          6           0        0.770000    2.667058    0.000000
     11          6           0       -1.540000   -4.000942    0.000000
     12          6           0       -3.080000   -4.000942    0.000000
     13          6           0       -3.850000   -2.667942    0.000000
     14          6           0       -3.080000   -1.333942    0.000000
     15          6           0        1.540000    4.001058    0.000000
     16          6           0        3.080000    4.001058    0.000000
     17          6           0        3.850000    2.667058    0.000000
     18          6           0        3.080000    1.334058    0.000000
     19          1           0       -3.080000    1.334058    0.000000
     20          1           0        3.080000   -1.333942    0.000000
     21          1           0       -1.540000    4.001058    0.000000
     22          1           0        1.540000   -4.000942    0.000000
     23          1           0       -0.770000   -5.334942    0.000000
     24          1           0       -3.850000   -5.334942    0.000000
     25          1           0       -5.390000   -2.667942    0.000000
     26          1           0       -3.850000    0.000058    0.000000
     27          1           0        0.770000    5.335058    0.000000
     28          1           0        3.850000    5.335058    0.000000
     29          1           0        5.390000    2.667058    0.000000
     30          1           0        3.850000    0.000058    0.000000
 ---------------------------------------------------------------------
 Rotational constants (GHZ):           1.0104510           0.2254718           0.1843386
 Standard basis: 6-31G (6D, 7F)
 There are   150 symmetry adapted cartesian basis functions of A'  symmetry.
 There are    36 symmetry adapted cartesian basis functions of A"  symmetry.
 There are   150 symmetry adapted basis functions of A'  symmetry.
 There are    36 symmetry adapted basis functions of A"  symmetry.
   186 basis functions,   444 primitive gaussians,   186 cartesian basis functions
    60 alpha electrons       60 beta electrons
       nuclear repulsion energy      1030.7886105351 Hartrees.
 NAtoms=   30 NActive=   30 NUniq=   30 SFac= 1.00D+00 NAtFMM=   60 NAOKFM=F Big=F
 Integral buffers will be    131072 words long.
 Raffenetti 2 integral format.
 Two-electron integral symmetry is turned on.
 One-electron integrals computed using PRISM.
 NBasis=   186 RedAO= T EigKep=  8.74D-04  NBF=   150    36
 NBsUse=   186 1.00D-06 EigRej= -1.00D+00 NBFU=   150    36
 ExpMin= 1.61D-01 ExpMax= 3.05D+03 ExpMxC= 4.57D+02 IAcc=3 IRadAn=         5 AccDes= 0.00D+00
 Harris functional with IExCor=  402 and IRadAn=       5 diagonalized for initial guess.
 HarFok:  IExCor=  402 AccDes= 0.00D+00 IRadAn=         5 IDoV= 1 UseB2=F ITyADJ=14
 ICtDFT=  3500011 ScaDFX=  1.000000  1.000000  1.000000  1.000000
 FoFCou: FMM=F IPFlag=           0 FMFlag=      100000 FMFlg1=           0
         NFxFlg=           0 DoJE=T BraDBF=F KetDBF=T FulRan=T
         wScrn=  0.000000 ICntrl=       500 IOpCl=  0 I1Cent=   200000004 NGrid=           0
         NMat0=    1 NMatS0=      1 NMatT0=    0 NMatD0=    1 NMtDS0=    0 NMtDT0=    0
 Petite list used in FoFCou.
 Initial guess orbital symmetries:
       Occupied  (A') (A') (A') (A') (A') (A') (A') (A') (A') (A')
                 (A') (A') (A') (A') (A') (A') (A') (A') (A') (A')
                 (A') (A') (A') (A') (A') (A') (A') (A') (A') (A')
                 (A') (A') (A') (A') (A') (A') (A') (A') (A') (A')
                 (A') (A') (A") (A') (A") (A') (A') (A') (A') (A')
                 (A') (A") (A') (A") (A') (A") (A") (A") (A") (A")
       Virtual   (A") (A") (A") (A') (A') (A") (A") (A') (A') (A')
                 (A") (A') (A') (A') (A') (A') (A") (A") (A') (A')
                 (A") (A') (A') (A') (A') (A') (A') (A') (A') (A')
                 (A') (A') (A') (A') (A') (A') (A') (A') (A') (A')
                 (A') (A') (A") (A") (A') (A') (A") (A') (A") (A')
                 (A') (A') (A') (A') (A') (A") (A") (A') (A') (A")
                 (A') (A') (A") (A") (A") (A') (A") (A') (A') (A')
                 (A") (A') (A") (A') (A') (A") (A") (A') (A') (A')
                 (A") (A') (A') (A') (A") (A') (A') (A") (A') (A')
                 (A') (A') (A') (A') (A') (A') (A') (A') (A') (A')
                 (A') (A') (A') (A') (A') (A') (A') (A') (A') (A')
                 (A') (A') (A') (A') (A') (A') (A') (A') (A') (A')
                 (A') (A') (A') (A') (A') (A')
 The electronic state of the initial guess is 1-A'.
 Keep R1 ints in memory in symmetry-blocked form, NReq=237752253.
 Requested convergence on RMS density matrix=1.00D-08 within 128 cycles.
 Requested convergence on MAX density matrix=1.00D-06.
 Requested convergence on             energy=1.00D-06.
 No special actions if energy rises.
 Integral accuracy reduced to 1.0D-05 until final iterations.
 Initial convergence to 1.0D-05 achieved.  Increase integral accuracy.
 SCF Done:  E(RB3LYP) =  -691.999713083     A.U. after   14 cycles
            NFock= 14  Conv=0.77D-08     -V/T= 2.0180

 **********************************************************************

            Population analysis using the SCF density.

 **********************************************************************

 Orbital symmetries:
       Occupied  (A') (A') (A') (A') (A') (A') (A') (A') (A') (A')
                 (A') (A') (A') (A') (A') (A') (A') (A') (A') (A')
                 (A') (A') (A') (A') (A') (A') (A') (A') (A') (A')
                 (A') (A') (A') (A') (A') (A') (A') (A') (A') (A')
                 (A') (A') (A') (A") (A') (A") (A') (A') (A') (A')
                 (A') (A") (A') (A") (A') (A") (A") (A") (A") (A")
       Virtual   (A") (A') (A") (A') (A") (A') (A') (A") (A") (A')
                 (A') (A') (A') (A') (A') (A") (A") (A') (A') (A")
                 (A') (A") (A') (A') (A') (A') (A') (A') (A') (A')
                 (A') (A') (A') (A') (A') (A') (A') (A') (A') (A')
                 (A') (A') (A") (A") (A') (A') (A") (A") (A') (A')
                 (A') (A') (A') (A') (A") (A') (A") (A') (A') (A")
                 (A') (A') (A") (A") (A') (A") (A') (A") (A') (A')
                 (A') (A") (A') (A') (A") (A") (A') (A') (A') (A")
                 (A") (A') (A') (A') (A") (A') (A') (A") (A') (A')
                 (A') (A') (A') (A') (A') (A') (A') (A') (A') (A')
                 (A') (A') (A') (A') (A') (A') (A') (A') (A') (A')
                 (A') (A') (A') (A') (A') (A') (A') (A') (A') (A')
                 (A') (A') (A') (A') (A') (A')
 The electronic state is 1-A'.
 Alpha  occ. eigenvalues --  -10.27305 -10.27305 -10.27274 -10.27268 -10.27154
 Alpha  occ. eigenvalues --  -10.27154 -10.27135 -10.27135 -10.26947 -10.26941
 Alpha  occ. eigenvalues --  -10.26925 -10.26924 -10.26180 -10.26180 -10.26096
 Alpha  occ. eigenvalues --  -10.26096 -10.26080 -10.26069  -0.84971  -0.82466
 Alpha  occ. eigenvalues --   -0.78773  -0.76954  -0.74277  -0.74254  -0.70459
 Alpha  occ. eigenvalues --   -0.70149  -0.67909  -0.61041  -0.60258  -0.59256
 Alpha  occ. eigenvalues --   -0.56246  -0.55720  -0.50162  -0.47766  -0.47574
 Alpha  occ. eigenvalues --   -0.46792  -0.43299  -0.43230  -0.42262  -0.40342
 Alpha  occ. eigenvalues --   -0.40318  -0.39345  -0.38758  -0.38389  -0.36107
 Alpha  occ. eigenvalues --   -0.35646  -0.35491  -0.35332  -0.34573  -0.33414
 Alpha  occ. eigenvalues --   -0.32551  -0.31709  -0.31422  -0.30313  -0.29548
 Alpha  occ. eigenvalues --   -0.27717  -0.27172  -0.23967  -0.23083  -0.20931
 Alpha virt. eigenvalues --   -0.08417  -0.06795  -0.06621  -0.05882  -0.05562
 Alpha virt. eigenvalues --   -0.03462  -0.02513  -0.01887  -0.01661  -0.00970
 Alpha virt. eigenvalues --    0.00220   0.01037   0.01125   0.01236   0.01454
 Alpha virt. eigenvalues --    0.02301   0.04298   0.07530   0.09128   0.09905
 Alpha virt. eigenvalues --    0.14199   0.14435   0.14745   0.15923   0.18656
 Alpha virt. eigenvalues --    0.18806   0.21522   0.21625   0.22548   0.24533
 Alpha virt. eigenvalues --    0.25806   0.27071   0.28229   0.29366   0.32511
 Alpha virt. eigenvalues --    0.34658   0.35889   0.36807   0.42740   0.42931
 Alpha virt. eigenvalues --    0.48645   0.49266   0.49324   0.50972   0.51075
 Alpha virt. eigenvalues --    0.53040   0.53622   0.53693   0.54021   0.55230
 Alpha virt. eigenvalues --    0.55426   0.55741   0.56498   0.56519   0.56523
 Alpha virt. eigenvalues --    0.57108   0.57808   0.58598   0.58813   0.59857
 Alpha virt. eigenvalues --    0.60184   0.61783   0.62039   0.62569   0.62907
 Alpha virt. eigenvalues --    0.63376   0.63987   0.64047   0.64592   0.65317
 Alpha virt. eigenvalues --    0.66070   0.66711   0.67556   0.67891   0.68069
 Alpha virt. eigenvalues --    0.70106   0.70621   0.71661   0.72017   0.72335
 Alpha virt. eigenvalues --    0.74087   0.74757   0.75440   0.76331   0.79609
 Alpha virt. eigenvalues --    0.80485   0.81031   0.87268   0.89637   0.91111
 Alpha virt. eigenvalues --    0.91928   0.94123   0.95812   0.96923   0.98072
 Alpha virt. eigenvalues --    1.01061   1.01808   1.03564   1.03814   1.04322
 Alpha virt. eigenvalues --    1.07115   1.07416   1.08480   1.08817   1.09737
 Alpha virt. eigenvalues --    1.10296   1.11129   1.12583   1.13869   1.14484
 Alpha virt. eigenvalues --    1.15570   1.18289   1.27184   1.28139   1.30019
 Alpha virt. eigenvalues --    1.30091   1.31604   1.34521   1.35912   1.39160
 Alpha virt. eigenvalues --    1.41238   1.45797   1.62359   1.62422   1.70880
 Alpha virt. eigenvalues --    1.71035
          Condensed to atoms (all electrons):
               1          2          3          4          5          6
     1  C    5.019232   0.440925   0.359086   0.404087  -0.039890  -0.029820
     2  C    0.440925   5.019243  -0.029830  -0.039882   0.404044   0.359148
     3  C    0.359086  -0.029830   5.004150  -0.030996  -0.012819   0.003595
     4  C    0.404087  -0.039882  -0.030996   5.066759   0.002471  -0.012824
     5  C   -0.039890   0.404044  -0.012819   0.002471   5.066797  -0.031012
     6  C   -0.029820   0.359148   0.003595  -0.012824  -0.031012   5.004012
     7  C   -0.034239  -0.007364   0.430725   0.002053  -0.048365   0.000071
     8  C   -0.044114  -0.015917   0.002716   0.469621   0.000004  -0.034156
     9  C   -0.015913  -0.044118  -0.034167   0.000004   0.469649   0.002716
    10  C   -0.007371  -0.034238   0.000071  -0.048364   0.002053   0.430795
    11  C    0.003273   0.000067  -0.030315  -0.000043   0.001908  -0.000002
    12  C    0.000130   0.000004  -0.007087  -0.000006  -0.000070   0.000000
    13  C    0.002529  -0.000053  -0.045689   0.000263   0.000006   0.000000
    14  C   -0.030822   0.001921   0.418869  -0.013600   0.000017  -0.000046
    15  C    0.000067   0.003273  -0.000002   0.001909  -0.000043  -0.030316
    16  C    0.000004   0.000130   0.000000  -0.000070  -0.000006  -0.007096
    17  C   -0.000053   0.002533   0.000000   0.000006   0.000264  -0.045700
    18  C    0.001922  -0.030825  -0.000046   0.000017  -0.013592   0.418861
    19  H   -0.021022   0.000575  -0.002794   0.293792  -0.000032   0.000193
    20  H    0.000575  -0.021018   0.000193  -0.000032   0.293790  -0.002800
    21  H    0.000631   0.000250  -0.000040  -0.012215   0.000001   0.000428
    22  H    0.000250   0.000631   0.000429   0.000001  -0.012215  -0.000040
    23  H   -0.000033   0.000002   0.000516   0.000000   0.000089   0.000000
    24  H    0.000000   0.000000   0.000077   0.000000   0.000000   0.000000
    25  H   -0.000033   0.000000   0.000877   0.000005   0.000000   0.000000
    26  H   -0.003362  -0.000027  -0.020234  -0.011202   0.000003  -0.000002
    27  H    0.000002  -0.000033   0.000000   0.000089   0.000000   0.000516
    28  H    0.000000   0.000000   0.000000   0.000000   0.000000   0.000077
    29  H    0.000000  -0.000033   0.000000   0.000000   0.000005   0.000878
    30  H   -0.000027  -0.003369  -0.000002   0.000003  -0.011203  -0.020208
               7          8          9         10         11         12
     1  C   -0.034239  -0.044114  -0.015913  -0.007371   0.003273   0.000130
     2  C   -0.007364  -0.015917  -0.044118  -0.034238   0.000067   0.000004
     3  C    0.430725   0.002716  -0.034167   0.000071  -0.030315  -0.007087
     4  C    0.002053   0.469621   0.000004  -0.048364  -0.000043  -0.000006
     5  C   -0.048365   0.000004   0.469649   0.002053   0.001908  -0.000070
     6  C    0.000071  -0.034156   0.002716   0.430795  -0.000002   0.000000
     7  C    4.989573  -0.000054   0.390620   0.000007   0.406274  -0.049930
     8  C   -0.000054   5.067594   0.000006   0.390665   0.000000   0.000000
     9  C    0.390620   0.000006   5.067614  -0.000054  -0.023088   0.001807
    10  C    0.000007   0.390665  -0.000054   4.989586   0.000000   0.000000
    11  C    0.406274   0.000000  -0.023088   0.000000   5.057685   0.461964
    12  C   -0.049930   0.000000   0.001807   0.000000   0.461964   5.046549
    13  C   -0.008038  -0.000002   0.000096   0.000000  -0.049328   0.430317
    14  C   -0.037223   0.000244   0.002834  -0.000006  -0.016918  -0.050886
    15  C    0.000000  -0.023094   0.000000   0.406155   0.000000   0.000000
    16  C    0.000000   0.001806   0.000000  -0.049923   0.000000   0.000000
    17  C    0.000000   0.000095  -0.000002  -0.008040   0.000000   0.000000
    18  C   -0.000006   0.002835   0.000244  -0.037239   0.000000   0.000000
    19  H   -0.000015  -0.010709   0.000003   0.000824  -0.000003  -0.000003
    20  H    0.000824   0.000003  -0.010710  -0.000015  -0.000028   0.000000
    21  H    0.000000   0.299402   0.000000  -0.022415   0.000000   0.000000
    22  H   -0.022415   0.000000   0.299403   0.000000   0.000843   0.000078
    23  H   -0.022260   0.000000   0.000763   0.000000   0.300693  -0.014080
    24  H    0.000961   0.000000  -0.000024   0.000000  -0.014725   0.298730
    25  H    0.000091   0.000000   0.000000   0.000000   0.001033  -0.016795
    26  H    0.000771   0.000235  -0.000028  -0.000004   0.000083   0.001057
    27  H    0.000000   0.000762   0.000000  -0.022260   0.000000   0.000000
    28  H    0.000000  -0.000024   0.000000   0.000961   0.000000   0.000000
    29  H    0.000000   0.000000   0.000000   0.000091   0.000000   0.000000
    30  H   -0.000004  -0.000028   0.000235   0.000772   0.000000   0.000000
              13         14         15         16         17         18
     1  C    0.002529  -0.030822   0.000067   0.000004  -0.000053   0.001922
     2  C   -0.000053   0.001921   0.003273   0.000130   0.002533  -0.030825
     3  C   -0.045689   0.418869  -0.000002   0.000000   0.000000  -0.000046
     4  C    0.000263  -0.013600   0.001909  -0.000070   0.000006   0.000017
     5  C    0.000006   0.000017  -0.000043  -0.000006   0.000264  -0.013592
     6  C    0.000000  -0.000046  -0.030316  -0.007096  -0.045700   0.418861
     7  C   -0.008038  -0.037223   0.000000   0.000000   0.000000  -0.000006
     8  C   -0.000002   0.000244  -0.023094   0.001806   0.000095   0.002835
     9  C    0.000096   0.002834   0.000000   0.000000  -0.000002   0.000244
    10  C    0.000000  -0.000006   0.406155  -0.049923  -0.008040  -0.037239
    11  C   -0.049328  -0.016918   0.000000   0.000000   0.000000   0.000000
    12  C    0.430317  -0.050886   0.000000   0.000000   0.000000   0.000000
    13  C    5.050990   0.459040   0.000000   0.000000   0.000000   0.000000
    14  C    0.459040   5.064543   0.000000   0.000000   0.000000   0.000000
    15  C    0.000000   0.000000   5.057737   0.462021  -0.049293  -0.016903
    16  C    0.000000   0.000000   0.462021   5.046750   0.430086  -0.050890
    17  C    0.000000   0.000000  -0.049293   0.430086   5.051038   0.459240
    18  C    0.000000   0.000000  -0.016903  -0.050890   0.459240   5.064285
    19  H    0.000223  -0.011547  -0.000028   0.000000   0.000000   0.000001
    20  H    0.000000   0.000001  -0.000003  -0.000003   0.000224  -0.011541
    21  H    0.000000   0.000006   0.000844   0.000078   0.000002  -0.000034
    22  H    0.000002  -0.000034   0.000000   0.000000   0.000000   0.000006
    23  H    0.001021   0.000101   0.000000   0.000000   0.000000   0.000000
    24  H   -0.016576   0.001052   0.000000   0.000000   0.000000   0.000000
    25  H    0.299437  -0.015257   0.000000   0.000000   0.000000   0.000000
    26  H   -0.013240   0.294772   0.000000   0.000000   0.000000   0.000000
    27  H    0.000000   0.000000   0.300687  -0.014080   0.001020   0.000101
    28  H    0.000000   0.000000  -0.014738   0.298717  -0.016549   0.001051
    29  H    0.000000   0.000000   0.001032  -0.016787   0.299434  -0.015261
    30  H    0.000000   0.000000   0.000083   0.001058  -0.013262   0.294769
              19         20         21         22         23         24
     1  C   -0.021022   0.000575   0.000631   0.000250  -0.000033   0.000000
     2  C    0.000575  -0.021018   0.000250   0.000631   0.000002   0.000000
     3  C   -0.002794   0.000193  -0.000040   0.000429   0.000516   0.000077
     4  C    0.293792  -0.000032  -0.012215   0.000001   0.000000   0.000000
     5  C   -0.000032   0.293790   0.000001  -0.012215   0.000089   0.000000
     6  C    0.000193  -0.002800   0.000428  -0.000040   0.000000   0.000000
     7  C   -0.000015   0.000824   0.000000  -0.022415  -0.022260   0.000961
     8  C   -0.010709   0.000003   0.299402   0.000000   0.000000   0.000000
     9  C    0.000003  -0.010710   0.000000   0.299403   0.000763  -0.000024
    10  C    0.000824  -0.000015  -0.022415   0.000000   0.000000   0.000000
    11  C   -0.000003  -0.000028   0.000000   0.000843   0.300693  -0.014725
    12  C   -0.000003   0.000000   0.000000   0.000078  -0.014080   0.298730
    13  C    0.000223   0.000000   0.000000   0.000002   0.001021  -0.016576
    14  C   -0.011547   0.000001   0.000006  -0.000034   0.000101   0.001052
    15  C   -0.000028  -0.000003   0.000844   0.000000   0.000000   0.000000
    16  C    0.000000  -0.000003   0.000078   0.000000   0.000000   0.000000
    17  C    0.000000   0.000224   0.000002   0.000000   0.000000   0.000000
    18  C    0.000001  -0.011541  -0.000034   0.000006   0.000000   0.000000
    19  H    0.652159   0.000000  -0.001373   0.000000   0.000000   0.000000
    20  H    0.000000   0.652136   0.000000  -0.001373  -0.000001   0.000000
    21  H   -0.001373   0.000000   0.630367   0.000000   0.000000   0.000000
    22  H    0.000000  -0.001373   0.000000   0.630368   0.004211  -0.000001
    23  H    0.000000  -0.000001   0.000000   0.004211   0.630386  -0.001518
    24  H    0.000000   0.000000   0.000000  -0.000001  -0.001518   0.635249
    25  H    0.000002   0.000000   0.000000   0.000000  -0.000013  -0.001579
    26  H    0.016787   0.000000   0.000002   0.000000   0.000000  -0.000013
    27  H   -0.000001   0.000000   0.004212   0.000000   0.000000   0.000000
    28  H    0.000000   0.000000  -0.000001   0.000000   0.000000   0.000000
    29  H    0.000000   0.000002   0.000000   0.000000   0.000000   0.000000
    30  H    0.000000   0.016796   0.000000   0.000002   0.000000   0.000000
              25         26         27         28         29         30
     1  C   -0.000033  -0.003362   0.000002   0.000000   0.000000  -0.000027
     2  C    0.000000  -0.000027  -0.000033   0.000000  -0.000033  -0.003369
     3  C    0.000877  -0.020234   0.000000   0.000000   0.000000  -0.000002
     4  C    0.000005  -0.011202   0.000089   0.000000   0.000000   0.000003
     5  C    0.000000   0.000003   0.000000   0.000000   0.000005  -0.011203
     6  C    0.000000  -0.000002   0.000516   0.000077   0.000878  -0.020208
     7  C    0.000091   0.000771   0.000000   0.000000   0.000000  -0.000004
     8  C    0.000000   0.000235   0.000762  -0.000024   0.000000  -0.000028
     9  C    0.000000  -0.000028   0.000000   0.000000   0.000000   0.000235
    10  C    0.000000  -0.000004  -0.022260   0.000961   0.000091   0.000772
    11  C    0.001033   0.000083   0.000000   0.000000   0.000000   0.000000
    12  C   -0.016795   0.001057   0.000000   0.000000   0.000000   0.000000
    13  C    0.299437  -0.013240   0.000000   0.000000   0.000000   0.000000
    14  C   -0.015257   0.294772   0.000000   0.000000   0.000000   0.000000
    15  C    0.000000   0.000000   0.300687  -0.014738   0.001032   0.000083
    16  C    0.000000   0.000000  -0.014080   0.298717  -0.016787   0.001058
    17  C    0.000000   0.000000   0.001020  -0.016549   0.299434  -0.013262
    18  C    0.000000   0.000000   0.000101   0.001051  -0.015261   0.294769
    19  H    0.000002   0.016787  -0.000001   0.000000   0.000000   0.000000
    20  H    0.000000   0.000000   0.000000   0.000000   0.000002   0.016796
    21  H    0.000000   0.000002   0.004212  -0.000001   0.000000   0.000000
    22  H    0.000000   0.000000   0.000000   0.000000   0.000000   0.000002
    23  H   -0.000013   0.000000   0.000000   0.000000   0.000000   0.000000
    24  H   -0.001579  -0.000013   0.000000   0.000000   0.000000   0.000000
    25  H    0.634771  -0.001405   0.000000   0.000000   0.000000   0.000000
    26  H   -0.001405   0.651677   0.000000   0.000000   0.000000   0.000000
    27  H    0.000000   0.000000   0.630398  -0.001517  -0.000012   0.000000
    28  H    0.000000   0.000000  -0.001517   0.635203  -0.001567  -0.000013
    29  H    0.000000   0.000000  -0.000012  -0.001567   0.634772  -0.001415
    30  H    0.000000   0.000000   0.000000  -0.000013  -0.001415   0.651702
 Mulliken charges:
               1
     1  C   -0.006012
     2  C   -0.006038
     3  C   -0.007285
     4  C   -0.071846
     5  C   -0.071855
     6  C   -0.007270
     7  C    0.007943
     8  C   -0.107892
     9  C   -0.107891
    10  C    0.007949
    11  C   -0.099375
    12  C   -0.101779
    13  C   -0.110996
    14  C   -0.067061
    15  C   -0.099387
    16  C   -0.101795
    17  C   -0.111043
    18  C   -0.066992
    19  H    0.082968
    20  H    0.082979
    21  H    0.099856
    22  H    0.099855
    23  H    0.100121
    24  H    0.098364
    25  H    0.098863
    26  H    0.084128
    27  H    0.100116
    28  H    0.098399
    29  H    0.098862
    30  H    0.084111
 Sum of Mulliken charges =   0.00000
 Mulliken charges with hydrogens summed into heavy atoms:
               1
     1  C   -0.006012
     2  C   -0.006038
     3  C   -0.007285
     4  C    0.011122
     5  C    0.011124
     6  C   -0.007270
     7  C    0.007943
     8  C   -0.008036
     9  C   -0.008036
    10  C    0.007949
    11  C    0.000746
    12  C   -0.003415
    13  C   -0.012133
    14  C    0.017067
    15  C    0.000730
    16  C   -0.003395
    17  C   -0.012181
    18  C    0.017119
 Electronic spatial extent (au):  <R**2>=           5662.5840
 Charge=              0.0000 electrons
 Dipole moment (field-independent basis, Debye):
    X=              0.0002    Y=              0.0005    Z=              0.0000  Tot=              0.0005
 Quadrupole moment (field-independent basis, Debye-Ang):
   XX=            -92.0382   YY=            -91.0311   ZZ=           -120.0908
   XY=             -0.5161   XZ=              0.0000   YZ=              0.0000
 Traceless Quadrupole moment (field-independent basis, Debye-Ang):
   XX=              9.0151   YY=             10.0222   ZZ=            -19.0374
   XY=             -0.5161   XZ=              0.0000   YZ=              0.0000
 Octapole moment (field-independent basis, Debye-Ang**2):
  XXX=              0.0052  YYY=              0.0185  ZZZ=              0.0000  XYY=              0.0082
  XXY=              0.0065  XXZ=              0.0000  XZZ=              0.0002  YZZ=             -0.0016
  YYZ=              0.0000  XYZ=              0.0000
 Hexadecapole moment (field-independent basis, Debye-Ang**3):
 XXXX=          -3072.6908 YYYY=          -3991.9871 ZZZZ=           -130.2905 XXXY=          -1023.8849
 XXXZ=              0.0000 YYYX=          -1049.5052 YYYZ=              0.0000 ZZZX=              0.0000
 ZZZY=              0.0000 XXYY=          -1187.5918 XXZZ=           -711.8487 YYZZ=           -926.0100
 XXYZ=              0.0000 YYXZ=              0.0000 ZZXY=           -458.5792
 N-N= 1.030788610535D+03 E-N=-3.658154095614D+03  KE= 6.797920533439D+02
 Symmetry A'   KE= 6.606283738530D+02
 Symmetry A"   KE= 1.916367949097D+01
 Calling FoFJK, ICntrl=      2127 FMM=F ISym2X=1 I1Cent= 0 IOpClX= 0 NMat=1 NMatS=1 NMatT=0.
 ***** Axes restored to original set *****
 -------------------------------------------------------------------
 Center     Atomic                   Forces (Hartrees/Bohr)
 Number     Number              X              Y              Z
 -------------------------------------------------------------------
      1        6           0.006500947    0.004135249    0.000000000
      2        6          -0.006451227   -0.004131343    0.000000000
      3        6           0.000846373   -0.017111131    0.000000000
      4        6           0.044016113    0.010904762    0.000000000
      5        6          -0.044056453   -0.010899038    0.000000000
      6        6          -0.000849688    0.017001019    0.000000000
      7        6          -0.018695242    0.000410512    0.000000000
      8        6          -0.021686893   -0.033994810    0.000000000
      9        6           0.021704131    0.034025389    0.000000000
     10        6           0.018617691   -0.000443801    0.000000000
     11        6          -0.010782368   -0.022022633    0.000000000
     12        6          -0.011132275    0.012397664    0.000000000
     13        6           0.015956231   -0.002671331    0.000000000
     14        6          -0.023815986   -0.019344651    0.000000000
     15        6           0.010822727    0.022136888    0.000000000
     16        6           0.010963535   -0.012430868    0.000000000
     17        6          -0.015577158    0.002663576    0.000000000
     18        6           0.023649074    0.019375616    0.000000000
     19        1           0.002535345    0.099224044    0.000000000
     20        1          -0.002533975   -0.099225434    0.000000000
     21        1          -0.085071741    0.050664781    0.000000000
     22        1           0.085072085   -0.050664814    0.000000000
     23        1           0.086247940   -0.048548429    0.000000000
     24        1           0.085900920    0.049457028    0.000000000
     25        1          -0.000183217    0.099170941    0.000000000
     26        1          -0.087211635    0.047252746    0.000000000
     27        1          -0.086245342    0.048546368    0.000000000
     28        1          -0.085917889   -0.049445914    0.000000000
     29        1           0.000181938   -0.099170257    0.000000000
     30        1           0.087196042   -0.047262131    0.000000000
 -------------------------------------------------------------------
 Cartesian Forces:  Max     0.099225434 RMS     0.038125077

 GradGradGradGradGradGradGradGradGradGradGradGradGradGradGradGradGradGrad
 Berny optimization.
 FormGI is forming the generalized inverse of G from B-inverse, IUseBI=4.
 Internal  Forces:  Max     0.115112984 RMS     0.038550203
 Search for a local minimum.
 Step number   1 out of a maximum of  180
 All quantities printed in internal units (Hartrees-Bohrs-Radians)
 Mixed Optimization -- RFO/linear search
 Second derivative matrix not updated -- first step.
 ITU=  0
     Eigenvalues ---    0.00230   0.00231   0.00233   0.00234   0.00234
     Eigenvalues ---    0.00234   0.00235   0.00235   0.00235   0.00235
     Eigenvalues ---    0.00237   0.00237   0.00237   0.00237   0.00237
     Eigenvalues ---    0.00237   0.00238   0.00239   0.00239   0.00239
     Eigenvalues ---    0.00239   0.00240   0.00240   0.00240   0.00241
     Eigenvalues ---    0.00241   0.00241   0.06253   0.06491   0.10351
     Eigenvalues ---    0.10351   0.10351   0.10351   0.10351   0.10351
     Eigenvalues ---    0.10358   0.10358   0.10651   0.10764   0.10882
     Eigenvalues ---    0.10898   0.16000   0.16000   0.16000   0.16000
     Eigenvalues ---    0.16000   0.16000   0.16000   0.16000   0.16000
     Eigenvalues ---    0.16000   0.17858   0.19158   0.21524   0.21882
     Eigenvalues ---    0.22054   0.22447   0.22523   0.22670   0.23927
     Eigenvalues ---    0.24106   0.24364   0.24490   0.25747   0.26298
     Eigenvalues ---    0.26526   0.27222   0.27595   0.27722   0.27970
     Eigenvalues ---    0.28103   0.28199   0.28299   0.28326   0.28426
     Eigenvalues ---    0.28494   0.28501   0.28509   0.28519   0.28523
     Eigenvalues ---    0.28536   0.28543   0.28558   0.28564
 RFO step:  Lambda=-4.37815143D-01 EMin= 2.30437965D-03
 Linear search not attempted -- first point.
 Maximum step size (   0.300) exceeded in Quadratic search.
    -- Step size scaled by   0.358
 Iteration  1 RMS(Cart)=  0.04682034 RMS(Int)=  0.00002424
 Iteration  2 RMS(Cart)=  0.00004405 RMS(Int)=  0.00001109
 Iteration  3 RMS(Cart)=  0.00000000 RMS(Int)=  0.00001109
 ClnCor:  largest displacement from symmetrization is 1.24D-10 for atom    28.
 Variable       Old X    -DE/DX   Delta X   Delta X   Delta X     New X
                                 (Linear)    (Quad)   (Total)
    R1        2.91018  -0.07968   0.00000  -0.04004  -0.04006   2.87012
    R2        2.91070  -0.05846   0.00000  -0.02995  -0.02997   2.88073
    R3        2.91070  -0.07505   0.00000  -0.03771  -0.03770   2.87300
    R4        2.91070  -0.07502   0.00000  -0.03770  -0.03769   2.87302
    R5        2.91070  -0.05849   0.00000  -0.02996  -0.02999   2.88072
    R6        2.90907  -0.07432   0.00000  -0.03676  -0.03679   2.87227
    R7        2.91018  -0.08420   0.00000  -0.04219  -0.04220   2.86798
    R8        2.90907  -0.11510   0.00000  -0.05668  -0.05666   2.85241
    R9        2.91018  -0.09512   0.00000  -0.06233  -0.06233   2.84785
   R10        2.90907  -0.11511   0.00000  -0.05669  -0.05667   2.85240
   R11        2.91018  -0.09512   0.00000  -0.06233  -0.06233   2.84785
   R12        2.90907  -0.07436   0.00000  -0.03678  -0.03681   2.87225
   R13        2.91018  -0.08414   0.00000  -0.04216  -0.04217   2.86801
   R14        2.91018  -0.07511   0.00000  -0.03682  -0.03681   2.87336
   R15        2.91070  -0.08216   0.00000  -0.04063  -0.04063   2.87007
   R16        2.91018  -0.07513   0.00000  -0.03683  -0.03683   2.87335
   R17        2.91070  -0.09901   0.00000  -0.06539  -0.06539   2.84531
   R18        2.91070  -0.09901   0.00000  -0.06539  -0.06539   2.84531
   R19        2.91070  -0.08210   0.00000  -0.04060  -0.04060   2.87010
   R20        2.91018  -0.10616   0.00000  -0.05232  -0.05231   2.85787
   R21        2.91070  -0.09897   0.00000  -0.06537  -0.06537   2.84534
   R22        2.90907  -0.08789   0.00000  -0.04327  -0.04326   2.86581
   R23        2.91070  -0.09912   0.00000  -0.06547  -0.06547   2.84523
   R24        2.91070  -0.10549   0.00000  -0.05221  -0.05220   2.85850
   R25        2.91018  -0.09917   0.00000  -0.06549  -0.06549   2.84468
   R26        2.91070  -0.09549   0.00000  -0.06245  -0.06245   2.84825
   R27        2.91018  -0.10624   0.00000  -0.05235  -0.05235   2.85783
   R28        2.91070  -0.09896   0.00000  -0.06536  -0.06536   2.84534
   R29        2.91070  -0.08808   0.00000  -0.04341  -0.04340   2.86731
   R30        2.91070  -0.09913   0.00000  -0.06547  -0.06547   2.84523
   R31        2.90907  -0.10531   0.00000  -0.05206  -0.05205   2.85701
   R32        2.91018  -0.09917   0.00000  -0.06549  -0.06549   2.84468
   R33        2.91070  -0.09548   0.00000  -0.06245  -0.06245   2.84826
   R34        2.91070   0.00777   0.00000   0.00685   0.00685   2.91756
   R35        2.91070   0.00777   0.00000   0.00685   0.00686   2.91756
    A1        2.09429  -0.00305   0.00000  -0.00138  -0.00142   2.09287
    A2        2.09429  -0.00501   0.00000  -0.00228  -0.00226   2.09203
    A3        2.09460   0.00806   0.00000   0.00366   0.00368   2.09829
    A4        2.09429  -0.00501   0.00000  -0.00228  -0.00226   2.09203
    A5        2.09429  -0.00305   0.00000  -0.00138  -0.00142   2.09287
    A6        2.09460   0.00806   0.00000   0.00366   0.00368   2.09828
    A7        2.09428  -0.00319   0.00000  -0.00136  -0.00139   2.09289
    A8        2.09429   0.01209   0.00000   0.00524   0.00527   2.09956
    A9        2.09462  -0.00890   0.00000  -0.00388  -0.00388   2.09073
   A10        2.09428   0.00999   0.00000   0.00483   0.00486   2.09914
   A11        2.09429  -0.01071   0.00000  -0.00641  -0.00643   2.08787
   A12        2.09462   0.00072   0.00000   0.00158   0.00157   2.09618
   A13        2.09428   0.00999   0.00000   0.00483   0.00486   2.09914
   A14        2.09429  -0.01071   0.00000  -0.00641  -0.00643   2.08787
   A15        2.09462   0.00072   0.00000   0.00157   0.00157   2.09618
   A16        2.09428  -0.00318   0.00000  -0.00135  -0.00138   2.09290
   A17        2.09429   0.01209   0.00000   0.00524   0.00527   2.09957
   A18        2.09462  -0.00892   0.00000  -0.00389  -0.00390   2.09072
   A19        2.09462  -0.00424   0.00000  -0.00240  -0.00240   2.09222
   A20        2.09428  -0.00347   0.00000  -0.00211  -0.00213   2.09214
   A21        2.09429   0.00771   0.00000   0.00451   0.00453   2.09883
   A22        2.09462   0.00549   0.00000   0.00259   0.00260   2.09722
   A23        2.09428  -0.00078   0.00000  -0.00012  -0.00013   2.09415
   A24        2.09429  -0.00471   0.00000  -0.00247  -0.00248   2.09181
   A25        2.09462   0.00549   0.00000   0.00259   0.00261   2.09722
   A26        2.09428  -0.00078   0.00000  -0.00012  -0.00013   2.09415
   A27        2.09429  -0.00471   0.00000  -0.00247  -0.00248   2.09181
   A28        2.09462  -0.00424   0.00000  -0.00240  -0.00240   2.09221
   A29        2.09428  -0.00347   0.00000  -0.00211  -0.00214   2.09214
   A30        2.09429   0.00771   0.00000   0.00451   0.00454   2.09883
   A31        2.09429   0.00380   0.00000   0.00192   0.00191   2.09620
   A32        2.09460  -0.00345   0.00000  -0.00189  -0.00189   2.09272
   A33        2.09429  -0.00034   0.00000  -0.00003  -0.00003   2.09427
   A34        2.09462   0.00065   0.00000   0.00038   0.00040   2.09502
   A35        2.09429  -0.00017   0.00000  -0.00010  -0.00011   2.09418
   A36        2.09428  -0.00048   0.00000  -0.00029  -0.00030   2.09398
   A37        2.09428   0.00135   0.00000   0.00052   0.00054   2.09482
   A38        2.09462  -0.00094   0.00000  -0.00042  -0.00043   2.09419
   A39        2.09429  -0.00041   0.00000  -0.00010  -0.00011   2.09418
   A40        2.09429   0.00657   0.00000   0.00317   0.00316   2.09745
   A41        2.09429  -0.00953   0.00000  -0.00570  -0.00571   2.08858
   A42        2.09460   0.00296   0.00000   0.00254   0.00255   2.09715
   A43        2.09429   0.00381   0.00000   0.00193   0.00193   2.09622
   A44        2.09460  -0.00346   0.00000  -0.00190  -0.00189   2.09271
   A45        2.09429  -0.00035   0.00000  -0.00003  -0.00003   2.09426
   A46        2.09429   0.00068   0.00000   0.00040   0.00042   2.09471
   A47        2.09429  -0.00015   0.00000  -0.00009  -0.00010   2.09419
   A48        2.09460  -0.00052   0.00000  -0.00031  -0.00032   2.09428
   A49        2.09428   0.00136   0.00000   0.00052   0.00054   2.09482
   A50        2.09429  -0.00094   0.00000  -0.00042  -0.00043   2.09386
   A51        2.09462  -0.00041   0.00000  -0.00010  -0.00011   2.09450
   A52        2.09462   0.00654   0.00000   0.00315   0.00315   2.09776
   A53        2.09429  -0.00954   0.00000  -0.00571  -0.00572   2.08857
   A54        2.09428   0.00300   0.00000   0.00256   0.00257   2.09685
   A55        2.09429   0.00041   0.00000   0.00173   0.00172   2.09601
   A56        2.09429   0.00042   0.00000   0.00173   0.00172   2.09601
   A57        2.09460  -0.00032   0.00000   0.00148   0.00147   2.09607
   A58        2.09460  -0.00032   0.00000   0.00148   0.00147   2.09607
    D1        0.00000   0.00000   0.00000   0.00000   0.00000   0.00000
    D2        3.14159   0.00000   0.00000   0.00000   0.00000   3.14159
    D3        3.14159   0.00000   0.00000   0.00000   0.00000   3.14159
    D4        0.00000   0.00000   0.00000   0.00000   0.00000   0.00000
    D5        0.00000   0.00000   0.00000   0.00000   0.00000   0.00000
    D6        3.14159   0.00000   0.00000   0.00000   0.00000   3.14159
    D7        3.14159   0.00000   0.00000   0.00000   0.00000   3.14159
    D8        0.00000   0.00000   0.00000   0.00000   0.00000   0.00000
    D9        0.00000   0.00000   0.00000   0.00000   0.00000   0.00000
   D10        3.14159   0.00000   0.00000   0.00000   0.00000   3.14159
   D11        3.14159   0.00000   0.00000   0.00000   0.00000   3.14159
   D12        0.00000   0.00000   0.00000   0.00000   0.00000   0.00000
   D13        0.00000   0.00000   0.00000   0.00000   0.00000   0.00000
   D14        3.14159   0.00000   0.00000   0.00000   0.00000   3.14159
   D15        3.14159   0.00000   0.00000   0.00000   0.00000   3.14159
   D16        0.00000   0.00000   0.00000   0.00000   0.00000   0.00000
   D17        0.00000   0.00000   0.00000   0.00000   0.00000   0.00000
   D18        3.14159   0.00000   0.00000   0.00000   0.00000   3.14159
   D19        3.14159   0.00000   0.00000   0.00000   0.00000   3.14159
   D20        0.00000   0.00000   0.00000   0.00000   0.00000   0.00000
   D21        0.00000   0.00000   0.00000   0.00000   0.00000   0.00000
   D22        3.14159   0.00000   0.00000   0.00000   0.00000   3.14159
   D23        3.14159   0.00000   0.00000   0.00000   0.00000   3.14159
   D24        0.00000   0.00000   0.00000   0.00000   0.00000   0.00000
   D25        3.14159   0.00000   0.00000   0.00000   0.00000   3.14159
   D26        0.00000   0.00000   0.00000   0.00000   0.00000   0.00000
   D27        0.00000   0.00000   0.00000   0.00000   0.00000   0.00000
   D28        3.14159   0.00000   0.00000   0.00000   0.00000   3.14159
   D29        0.00000   0.00000   0.00000   0.00000   0.00000   0.00000
   D30        3.14159   0.00000   0.00000   0.00000   0.00000   3.14159
   D31        3.14159   0.00000   0.00000   0.00000   0.00000   3.14159
   D32        0.00000   0.00000   0.00000   0.00000   0.00000   0.00000
   D33        0.00000   0.00000   0.00000   0.00000   0.00000   0.00000
   D34        3.14159   0.00000   0.00000   0.00000   0.00000   3.14159
   D35        0.00000   0.00000   0.00000   0.00000   0.00000   0.00000
   D36        3.14159   0.00000   0.00000   0.00000   0.00000   3.14159
   D37        3.14159   0.00000   0.00000   0.00000   0.00000   3.14159
   D38        0.00000   0.00000   0.00000   0.00000   0.00000   0.00000
   D39        0.00000   0.00000   0.00000   0.00000   0.00000   0.00000
   D40        3.14159   0.00000   0.00000   0.00000   0.00000   3.14159
   D41        0.00000   0.00000   0.00000   0.00000   0.00000   0.00000
   D42        3.14159   0.00000   0.00000   0.00000   0.00000   3.14159
   D43        3.14159   0.00000   0.00000   0.00000   0.00000   3.14159
   D44        0.00000   0.00000   0.00000   0.00000   0.00000   0.00000
   D45        3.14159   0.00000   0.00000   0.00000   0.00000   3.14159
   D46        0.00000   0.00000   0.00000   0.00000   0.00000   0.00000
   D47        0.00000   0.00000   0.00000   0.00000   0.00000   0.00000
   D48        3.14159   0.00000   0.00000   0.00000   0.00000   3.14159
   D49        0.00000   0.00000   0.00000   0.00000   0.00000   0.00000
   D50        3.14159   0.00000   0.00000   0.00000   0.00000   3.14159
   D51        3.14159   0.00000   0.00000   0.00000   0.00000   3.14159
   D52        0.00000   0.00000   0.00000   0.00000   0.00000   0.00000
   D53        0.00000   0.00000   0.00000   0.00000   0.00000   0.00000
   D54        3.14159   0.00000   0.00000   0.00000   0.00000   3.14159
   D55        3.14159   0.00000   0.00000   0.00000   0.00000   3.14159
   D56        0.00000   0.00000   0.00000   0.00000   0.00000   0.00000
   D57        0.00000   0.00000   0.00000   0.00000   0.00000   0.00000
   D58        3.14159   0.00000   0.00000   0.00000   0.00000   3.14159
   D59        3.14159   0.00000   0.00000   0.00000   0.00000   3.14159
   D60        0.00000   0.00000   0.00000   0.00000   0.00000   0.00000
   D61        0.00000   0.00000   0.00000   0.00000   0.00000   0.00000
   D62        3.14159   0.00000   0.00000   0.00000   0.00000   3.14159
   D63        3.14159   0.00000   0.00000   0.00000   0.00000   3.14159
   D64        0.00000   0.00000   0.00000   0.00000   0.00000   0.00000
   D65        0.00000   0.00000   0.00000   0.00000   0.00000   0.00000
   D66        3.14159   0.00000   0.00000   0.00000   0.00000   3.14159
   D67        3.14159   0.00000   0.00000   0.00000   0.00000   3.14159
   D68        0.00000   0.00000   0.00000   0.00000   0.00000   0.00000
   D69        0.00000   0.00000   0.00000   0.00000   0.00000   0.00000
   D70        3.14159   0.00000   0.00000   0.00000   0.00000   3.14159
   D71        3.14159   0.00000   0.00000   0.00000   0.00000   3.14159
   D72        0.00000   0.00000   0.00000   0.00000   0.00000   0.00000
   D73        0.00000   0.00000   0.00000   0.00000   0.00000   0.00000
   D74        3.14159   0.00000   0.00000   0.00000   0.00000   3.14159
   D75        3.14159   0.00000   0.00000   0.00000   0.00000   3.14159
   D76        0.00000   0.00000   0.00000   0.00000   0.00000   0.00000
   D77        0.00000   0.00000   0.00000   0.00000   0.00000   0.00000
   D78        3.14159   0.00000   0.00000   0.00000   0.00000   3.14159
   D79        0.00000   0.00000   0.00000   0.00000   0.00000   0.00000
   D80        3.14159   0.00000   0.00000   0.00000   0.00000   3.14159
   D81        3.14159   0.00000   0.00000   0.00000   0.00000   3.14159
   D82        0.00000   0.00000   0.00000   0.00000   0.00000   0.00000
   D83        0.00000   0.00000   0.00000   0.00000   0.00000   0.00000
   D84        3.14159   0.00000   0.00000   0.00000   0.00000   3.14159
   D85        3.14159   0.00000   0.00000   0.00000   0.00000   3.14159
   D86        0.00000   0.00000   0.00000   0.00000   0.00000   0.00000
   D87        0.00000   0.00000   0.00000   0.00000   0.00000   0.00000
   D88        3.14159   0.00000   0.00000   0.00000   0.00000   3.14159
   D89        3.14159   0.00000   0.00000   0.00000   0.00000   3.14159
   D90        0.00000   0.00000   0.00000   0.00000   0.00000   0.00000
   D91        0.00000   0.00000   0.00000   0.00000   0.00000   0.00000
   D92        3.14159   0.00000   0.00000   0.00000   0.00000   3.14159
   D93        0.00000   0.00000   0.00000   0.00000   0.00000   0.00000
   D94        0.00000   0.00000   0.00000   0.00000   0.00000   0.00000
         Item               Value     Threshold  Converged?
 Maximum Force            0.115113     0.000450     NO 
 RMS     Force            0.038550     0.000300     NO 
 Maximum Displacement     0.168148     0.001800     NO 
 RMS     Displacement     0.046844     0.001200     NO 
 Predicted change in Energy=-1.482547D-01
 GradGradGradGradGradGradGradGradGradGradGradGradGradGradGradGradGradGrad

                          Input orientation:                          
 ---------------------------------------------------------------------
 Center     Atomic      Atomic             Coordinates (Angstroms)
 Number     Number       Type             X           Y           Z
 ---------------------------------------------------------------------
      1          6           0        0.001972   -0.759403    0.000000
      2          6           0       -0.001986    0.759392    0.000000
      3          6           0       -1.317389   -1.523039    0.000000
      4          6           0        1.322378   -1.513011    0.000000
      5          6           0       -1.322395    1.513008    0.000000
      6          6           0        1.317369    1.523022    0.000000
      7          6           0       -2.633377   -0.762515    0.000000
      8          6           0        2.629408   -0.757995    0.000000
      9          6           0       -2.629424    0.757999    0.000000
     10          6           0        2.633353    0.762512    0.000000
     11          6           0       -3.947283   -1.524308    0.000000
     12          6           0       -3.947250   -3.036626    0.000000
     13          6           0       -2.634362   -3.795679    0.000000
     14          6           0       -1.323588   -3.040696    0.000000
     15          6           0        3.947267    1.524324    0.000000
     16          6           0        3.947243    3.036624    0.000000
     17          6           0        2.633440    3.795678    0.000000
     18          6           0        1.323578    3.040694    0.000000
     19          1           0        1.320030   -3.020028    0.000000
     20          1           0       -1.320044    3.020025    0.000000
     21          1           0        3.933350   -1.510847    0.000000
     22          1           0       -3.933363    1.510857    0.000000
     23          1           0       -5.251360   -0.771662    0.000000
     24          1           0       -5.251310   -3.789196    0.000000
     25          1           0       -2.635584   -5.301021    0.000000
     26          1           0       -0.016988   -3.792054    0.000000
     27          1           0        5.251346    0.771678    0.000000
     28          1           0        5.251299    3.789193    0.000000
     29          1           0        2.634696    5.301020    0.000000
     30          1           0        0.016974    3.792052    0.000000
 ---------------------------------------------------------------------
                    Distance matrix (angstroms):
                    1          2          3          4          5
     1  C    0.000000
     2  C    1.518800   0.000000
     3  C    1.524419   2.634346   0.000000
     4  C    1.520328   2.630163   2.639786   0.000000
     5  C    2.630171   1.520335   3.036051   4.018907   0.000000
     6  C    2.634337   1.524410   4.027460   3.036038   2.639783
     7  C    2.635351   3.039806   1.519942   4.026319   2.626152
     8  C    2.627436   3.037548   4.020261   1.509429   4.557873
     9  C    3.037557   2.627438   2.631457   4.557875   1.509424
    10  C    3.039801   2.635340   4.564220   2.626150   4.026312
[...]
 275897,0.00125488,0.,0.00008613,-0.00003239,0.,0.00381354,-0.01409535,
 0.,0.00020494,-0.00006942,0.,0.00052903,-0.00064981,0.,-0.00031049,-0.
 00014485,0.,-0.00010008,0.00006969,0.,0.00002913,0.00004863,0.,-0.0000
 9874,0.00000385,0.,-0.00010419,-0.00003009,0.,-0.00039127,0.00057986,0
 .,-0.00199843,-0.00099997,0.,0.00022678,-0.00010936,0.,-0.00533929,0.3
 6876989,0.,0.,0.00413159,0.,0.,0.00281290,0.,0.,-0.00000715,0.,0.,0.00
 029679,0.,0.,-0.03757968,0.,0.,-0.00214042,0.,0.,0.00939218,0.,0.,-0.0
 0018902,0.,0.,0.00456298,0.,0.,0.00000650,0.,0.,0.00025281,0.,0.,-0.00
 085108,0.,0.,0.00027315,0.,0.,-0.00104446,0.,0.,-0.00003930,0.,0.,0.00
 008986,0.,0.,-0.00025388,0.,0.,-0.00044603,0.,0.,-0.00002454,0.,0.,0.0
 2393728,-0.00156597,-0.00423997,0.,0.00020108,-0.00040804,0.,-0.000607
 86,0.00129475,0.,-0.02064814,0.01680421,0.,0.00011555,0.00006777,0.,0.
 00118516,-0.00072540,0.,-0.00031476,-0.00031790,0.,-0.27050945,0.11878
 045,0.,-0.00000025,-0.00012774,0.,0.00175065,-0.00321124,0.,-0.0000824
 7,0.00007443,0.,-0.00002377,0.00001154,0.,0.00005086,-0.00003156,0.,-0
 .00006916,0.00004734,0.,0.00101675,-0.00149062,0.,-0.00000293,0.000398
 25,0.,0.00033668,-0.00001237,0.,-0.00019679,-0.00042874,0.,0.00100199,
 -0.00037123,0.,-0.00001860,0.00004629,0.,0.28805704,-0.00274711,-0.001
 55958,0.,-0.00072407,-0.00044977,0.,-0.00041925,0.00071778,0.,-0.01857
 552,0.01073729,0.,0.00013681,0.00014494,0.,-0.00235853,-0.00487272,0.,
 -0.00017744,-0.00007792,0.,0.11949136,-0.12722878,0.,0.00001341,-0.000
 09282,0.,0.02989280,-0.01303362,0.,-0.00007932,0.00002878,0.,0.0000022
 7,0.00004577,0.,0.00006303,-0.00003937,0.,0.00001209,0.00003128,0.,0.0
 0212736,0.00138313,0.,-0.00034678,0.00017516,0.,-0.00001474,0.00013907
 ,0.,0.00170807,-0.00019061,0.,0.00020100,0.00120962,0.,-0.00005352,0.0
 0003013,0.,-0.12666691,0.13354203,0.,0.,0.00886371,0.,0.,-0.00005288,0
 .,0.,0.00035357,0.,0.,0.00419891,0.,0.,-0.00119291,0.,0.,0.00402622,0.
 ,0.,-0.00075935,0.,0.,-0.03782772,0.,0.,0.00029568,0.,0.,0.00373666,0.
 ,0.,0.00000827,0.,0.,0.00007813,0.,0.,-0.00007571,0.,0.,0.00028063,0.,
 0.,-0.00281860,0.,0.,-0.00005625,0.,0.,-0.00010605,0.,0.,0.00015146,0.
 ,0.,-0.00547678,0.,0.,0.00005227,0.,0.,0.02570006,0.00020109,-0.000408
 05,0.,-0.00156601,-0.00423997,0.,0.00118516,-0.00072539,0.,0.00011555,
 0.00006777,0.,-0.02064810,0.01680419,0.,-0.00060785,0.00129475,0.,0.00
 175071,-0.00321124,0.,-0.00000025,-0.00012774,0.,-0.27050937,0.1187806
 2,0.,-0.00031476,-0.00031789,0.,0.00101673,-0.00149059,0.,-0.00000294,
 0.00039824,0.,0.00033668,-0.00001237,0.,-0.00019679,-0.00042873,0.,-0.
 00008247,0.00007443,0.,-0.00002377,0.00001154,0.,0.00005086,-0.0000315
 6,0.,-0.00006916,0.00004735,0.,-0.00001860,0.00004629,0.,0.00100198,-0
 .00037123,0.,-0.00003144,0.00001434,0.,0.28805691,-0.00072407,-0.00044
 978,0.,-0.00274712,-0.00155959,0.,-0.00235852,-0.00487275,0.,0.0001368
 1,0.00014494,0.,-0.01857550,0.01073727,0.,-0.00041925,0.00071778,0.,0.
 02989277,-0.01303350,0.,0.00001341,-0.00009282,0.,0.11949156,-0.127228
 95,0.,-0.00017744,-0.00007792,0.,0.00212733,0.00138312,0.,-0.00034678,
 0.00017515,0.,-0.00001474,0.00013906,0.,0.00170806,-0.00019060,0.,-0.0
 0007932,0.00002878,0.,0.00000227,0.00004577,0.,0.00006303,-0.00003937,
 0.,0.00001209,0.00003128,0.,-0.00005352,0.00003013,0.,0.00020099,0.001
 20960,0.,0.00001434,0.00000847,0.,-0.12666707,0.13354217,0.,0.,-0.0000
 5289,0.,0.,0.00886369,0.,0.,0.00402628,0.,0.,-0.00119291,0.,0.,0.00419
 886,0.,0.,0.00035356,0.,0.,0.00373662,0.,0.,0.00029568,0.,0.,-0.037827
 69,0.,0.,-0.00075935,0.,0.,-0.00281860,0.,0.,-0.00005624,0.,0.,-0.0001
 0605,0.,0.,0.00015145,0.,0.,0.00000827,0.,0.,0.00007813,0.,0.,-0.00007
 571,0.,0.,0.00028063,0.,0.,0.00005227,0.,0.,-0.00547673,0.,0.,0.000117
 11,0.,0.,0.02570005,-0.00063095,0.00137478,0.,0.00014779,0.00011600,0.
 ,-0.00198059,-0.00407573,0.,-0.00028655,-0.00041963,0.,0.00016527,-0.0
 0032546,0.,0.00008500,-0.00010164,0.,-0.02116981,0.01707999,0.,-0.0000
 6659,0.00012125,0.,0.00098516,0.00217967,0.,-0.00000876,-0.00001100,0.
 ,-0.26381262,0.12259843,0.,0.00380910,-0.00449088,0.,0.00158859,-0.000
 68318,0.,0.00020770,-0.00089628,0.,0.00003811,-0.00001590,0.,-0.000015
 66,-0.00002855,0.,-0.00001383,-0.00000322,0.,-0.00006557,0.00001456,0.
 ,0.00003752,0.00002007,0.,-0.00004165,-0.00006583,0.,-0.00005526,-0.00
 002206,0.,0.00040127,-0.00134491,0.,0.27976989,-0.00079095,0.00037976,
 0.,-0.00015481,0.00027039,0.,-0.00264336,-0.00147617,0.,-0.00008133,-0
 .00015833,0.,0.00045311,0.00011659,0.,0.00007083,-0.00001536,0.,-0.016
 05326,0.00964506,0.,-0.00006147,0.00000806,0.,-0.00160126,0.00127546,0
 .,0.00001009,0.00003847,0.,0.12258904,-0.13410384,0.,0.03085978,-0.012
 48150,0.,-0.00196333,-0.00514407,0.,-0.00070970,-0.00042168,0.,-0.0000
 1502,0.00000129,0.,0.00000050,0.00001594,0.,0.00002317,-0.00000836,0.,
 0.00000053,-0.00000270,0.,-0.00000721,0.00001524,0.,0.00001638,0.00001
 052,0.,-0.00001032,-0.00000941,0.,0.00050137,-0.00003750,0.,-0.1315178
 9,0.14166650,0.,0.,0.00040057,0.,0.,-0.00015235,0.,0.,0.00507872,0.,0.
 ,0.00008775,0.,0.,-0.00001980,0.,0.,0.00002937,0.,0.,0.00380918,0.,0.,
 0.00002909,0.,0.,-0.00371024,0.,0.,-0.00000721,0.,0.,-0.03794647,0.,0.
 ,0.00412544,0.,0.,0.00778174,0.,0.,-0.00004656,0.,0.,-0.00000134,0.,0.
 ,-0.00000236,0.,0.,-0.00000378,0.,0.,-0.00000690,0.,0.,0.00003197,0.,0
 .,0.00021996,0.,0.,-0.00005116,0.,0.,0.00031767,0.,0.,0.02586563,0.000
 00889,-0.00011508,0.,-0.00005615,0.00002844,0.,0.00044672,0.00085812,0
 .,-0.00004901,0.00002287,0.,0.00012002,-0.00009405,0.,0.00003356,0.000
 01240,0.,0.00153414,0.00092272,0.,0.00000574,-0.00003345,0.,-0.0001080
 4,0.00009576,0.,-0.00003271,0.00002652,0.,0.00332855,0.00401726,0.,-0.
 27335886,-0.12160233,0.,-0.01904242,-0.01735253,0.,-0.00244496,0.00405
 837,0.,0.00001875,-0.00002337,0.,-0.00000494,-0.00000426,0.,0.00000047
 ,-0.00000865,0.,-0.00002765,-0.00001055,0.,0.00007450,-0.00004502,0.,-
 0.00000837,-0.00000881,0.,-0.00001604,-0.00000007,0.,0.00002828,-0.000
 03514,0.,0.00095281,-0.00047185,0.,0.28867095,0.00010551,0.00027949,0.
 ,0.00027513,-0.00011459,0.,0.00044023,-0.00074223,0.,-0.00005489,-0.00
 006935,0.,-0.00008529,-0.00056675,0.,-0.00004366,0.00000687,0.,0.00208
 538,-0.00497262,0.,-0.00001394,0.00009096,0.,-0.00150993,0.00021790,0.
 ,0.00000621,-0.00003786,0.,-0.03123941,-0.01184031,0.,-0.12107684,-0.1
 3002936,0.,0.01755746,0.01128268,0.,0.00303219,-0.00130026,0.,0.000014
 20,0.00000923,0.,0.00000630,-0.00002098,0.,-0.00002489,0.00000332,0.,-
 0.00000728,0.00000890,0.,-0.00002637,0.00003676,0.,-0.00013439,-0.0000
 9380,0.,-0.00001163,-0.00000040,0.,0.00004337,-0.00003574,0.,0.0004955
 8,0.00105311,0.,0.13004318,0.13559278,0.,0.,-0.00116126,0.,0.,0.000222
 05,0.,0.,-0.00018135,0.,0.,0.00007538,0.,0.,-0.00063864,0.,0.,0.000034
 74,0.,0.,0.00843225,0.,0.,-0.00005953,0.,0.,0.00036566,0.,0.,0.0000079
 4,0.,0.,0.00369557,0.,0.,-0.03832941,0.,0.,0.00303807,0.,0.,0.00565989
 ,0.,0.,0.00001492,0.,0.,0.00000667,0.,0.,0.00001042,0.,0.,0.00000400,0
 .,0.,0.00004963,0.,0.,0.00000310,0.,0.,0.00000158,0.,0.,0.00012784,0.,
 0.,-0.00474448,0.,0.,0.02632574,0.00084097,-0.00109659,0.,-0.00028900,
 -0.00022615,0.,-0.00474280,-0.00140419,0.,0.00003696,-0.00005860,0.,-0
 .00023294,0.00009052,0.,0.00000965,-0.00016072,0.,-0.00100659,-0.00031
 793,0.,0.00000577,0.00009885,0.,0.00028246,0.00019727,0.,0.00001659,-0
 .00004148,0.,-0.00471419,0.00195009,0.,0.00378954,0.03055390,0.,-0.060
 41465,-0.00152994,0.,0.00234383,-0.03140666,0.,0.00001943,0.00001702,0
 .,0.00000842,-0.00002093,0.,-0.00001914,-0.00001462,0.,-0.00004641,0.0
 0001857,0.,-0.00005902,0.00002218,0.,0.00001177,-0.00000509,0.,-0.0000
 2380,-0.00000942,0.,0.00002833,-0.00008372,0.,0.00002971,0.00140734,0.
 ,0.00101070,-0.00063889,0.,0.06202587,0.00055196,-0.00059042,0.,-0.000
 29671,-0.00006851,0.,-0.00250218,0.00122899,0.,0.00000335,-0.00010882,
 0.,-0.00007721,0.00002310,0.,0.00006588,-0.00004876,0.,0.00002092,0.00
 081595,0.,-0.00001524,0.00003134,0.,-0.00000265,0.00008145,0.,-0.00003
 074,-0.00000424,0.,0.00298482,0.00073211,0.,-0.00439287,-0.01185858,0.
 ,-0.00225001,-0.34166028,0.,0.00374755,-0.01187465,0.,0.00002908,-0.00
 001327,0.,-0.00001326,-0.00001908,0.,-0.00001109,-0.00000385,0.,-0.000
 05891,-0.00000211,0.,-0.00000598,0.00000830,0.,-0.00000570,-0.00003346
 ,0.,-0.00003603,-0.00000433,0.,0.00002279,0.00000461,0.,-0.00013875,-0
 .00072117,0.,0.00042375,0.00088811,0.,0.00239794,0.36209021,0.,0.,0.00
 041979,0.,0.,-0.00067693,0.,0.,0.00821048,0.,0.,0.00024203,0.,0.,0.000
 24226,0.,0.,0.00002430,0.,0.,-0.00026520,0.,0.,-0.00007398,0.,0.,-0.00
 109445,0.,0.,0.00006656,0.,0.,0.00561334,0.,0.,0.00316938,0.,0.,-0.038
 01632,0.,0.,0.00353787,0.,0.,0.00000117,0.,0.,-0.00001355,0.,0.,0.0000
 0665,0.,0.,-0.00006877,0.,0.,-0.00002209,0.,0.,0.00007683,0.,0.,-0.000
 00446,0.,0.,0.00003549,0.,0.,0.00030125,0.,0.,-0.00316140,0.,0.,0.0262
 9186,-0.00138682,0.00052790,0.,0.00002262,0.00018688,0.,0.00425329,-0.
 00167963,0.,-0.00187734,-0.00216779,0.,0.00010937,0.00012959,0.,-0.000
 06242,0.00005099,0.,0.00124682,-0.00115774,0.,0.00017023,-0.00035216,0
 .,0.00002022,-0.00034970,0.,-0.00004880,-0.00001290,0.,0.00035903,-0.0
 0074197,0.,-0.00257817,-0.00404832,0.,-0.02145392,0.01834455,0.,-0.261
 70966,0.12876168,0.,-0.00000827,-0.00001572,0.,-0.00000684,0.00002550,
 0.,0.00001716,0.00000990,0.,0.00005130,-0.00000339,0.,-0.00285872,-0.0
 0310152,0.,0.00001279,0.00002859,0.,-0.00001520,-0.00000630,0.,0.00000
 824,0.00000228,0.,-0.00006357,0.00014026,0.,-0.00107503,0.00077576,0.,
 0.00109533,-0.00039089,0.,0.28576214,0.00082307,0.00107357,0.,-0.00005
 504,-0.00008317,0.,0.02935068,-0.01213916,0.,0.00037800,-0.00158996,0.
 ,0.00005629,0.00003121,0.,0.00002826,0.00016056,0.,-0.00242410,-0.0049
 4657,0.,-0.00044486,0.00074118,0.,0.00166941,-0.00008800,0.,0.00018374
 ,0.00006656,0.,-0.00072223,-0.00061955,0.,-0.00285354,-0.00094641,0.,-
 0.01744550,0.01065480,0.,0.12967134,-0.14116938,0.,-0.00005710,0.00009
 588,0.,-0.00002587,0.00001696,0.,0.00001531,0.00005788,0.,0.00001802,-
 0.00005553,0.,-0.00285455,0.00048662,0.,-0.00005941,-0.00000578,0.,-0.
 00004795,-0.00005022,0.,0.00003073,-0.00051526,0.,0.00016845,0.0000917
 0,0.,-0.00069883,0.00034440,0.,0.00026805,0.00111409,0.,-0.13494971,0.
 14722265,0.,0.,-0.00282641,0.,0.,-0.00004543,0.,0.,0.00335615,0.,0.,-0
 .00057196,0.,0.,-0.00029454,0.,0.,0.00009615,0.,0.,0.00551314,0.,0.,-0
 .00019249,0.,0.,0.00026125,0.,0.,0.00008737,0.,0.,-0.00011465,0.,0.,0.
 00802202,0.,0.,0.00428419,0.,0.,-0.03749186,0.,0.,0.00004924,0.,0.,0.0
 0000579,0.,0.,-0.00003462,0.,0.,0.00003166,0.,0.,0.00182940,0.,0.,0.00
 005519,0.,0.,-0.00003554,0.,0.,0.00011215,0.,0.,-0.00139893,0.,0.,0.00
 022335,0.,0.,-0.00486808,0.,0.,0.02394394,0.00014780,0.00011599,0.,-0.
 00063095,0.00137480,0.,0.00008500,-0.00010164,0.,0.00016527,-0.0003254
 6,0.,-0.00028655,-0.00041963,0.,-0.00198057,-0.00407576,0.,-0.00000876
 ,-0.00001100,0.,0.00098519,0.00217971,0.,-0.00006659,0.00012126,0.,-0.
 02117000,0.01708011,0.,0.00003811,-0.00001590,0.,-0.00001566,-0.000028
 55,0.,-0.00001383,-0.00000322,0.,-0.00006557,0.00001456,0.,-0.26381359
 ,0.12259705,0.,0.00380904,-0.00449081,0.,0.00158856,-0.00068320,0.,0.0
 0020768,-0.00089626,0.,-0.00004165,-0.00006582,0.,0.00003752,0.0000200
 7,0.,0.00040128,-0.00134492,0.,-0.00005526,-0.00002206,0.,-0.00000359,
 0.00000698,0.,-0.00000609,-0.00000616,0.,-0.00000493,-0.00001376,0.,0.
 00000812,-0.00001493,0.,0.27977110,-0.00015480,0.00027039,0.,-0.000790
 94,0.00037975,0.,0.00007083,-0.00001536,0.,0.00045311,0.00011659,0.,-0
 .00008133,-0.00015833,0.,-0.00264337,-0.00147612,0.,0.00001009,0.00003
 847,0.,-0.00160132,0.00127546,0.,-0.00006147,0.00000806,0.,-0.01605334
 ,0.00964513,0.,-0.00001502,0.00000129,0.,0.00000050,0.00001594,0.,0.00
 002317,-0.00000836,0.,0.00000053,-0.00000270,0.,0.12258824,-0.13410246
 ,0.,0.03085955,-0.01248119,0.,-0.00196330,-0.00514405,0.,-0.00070971,-
 0.00042167,0.,0.00001638,0.00001052,0.,-0.00000721,0.00001524,0.,0.000
 50137,-0.00003750,0.,-0.00001032,-0.00000941,0.,0.00000698,-0.00000434
 ,0.,0.00000668,0.00000400,0.,0.00000076,0.00000738,0.,-0.00000505,-0.0
 0001504,0.,-0.13151673,0.14166468,0.,0.,-0.00015235,0.,0.,0.00040057,0
 .,0.,0.00002937,0.,0.,-0.00001979,0.,0.,0.00008774,0.,0.,0.00507880,0.
 ,0.,-0.00000721,0.,0.,-0.00371032,0.,0.,0.00002909,0.,0.,0.00380938,0.
 ,0.,-0.00000134,0.,0.,-0.00000236,0.,0.,-0.00000378,0.,0.,-0.00000690,
 0.,0.,-0.03794667,0.,0.,0.00412521,0.,0.,0.00778173,0.,0.,-0.00004659,
 0.,0.,0.00021997,0.,0.,0.00003197,0.,0.,0.00031767,0.,0.,-0.00005115,0
 .,0.,0.00000103,0.,0.,0.00000172,0.,0.,0.00000303,0.,0.,0.00000748,0.,
 0.,0.02586582,-0.00005615,0.00002844,0.,0.00000890,-0.00011507,0.,0.00
 003356,0.00001240,0.,0.00012002,-0.00009406,0.,-0.00004902,0.00002287,
 0.,0.00044675,0.00085814,0.,-0.00003271,0.00002652,0.,-0.00010805,0.00
 009576,0.,0.00000574,-0.00003345,0.,0.00153413,0.00092268,0.,0.0000187
 5,-0.00002337,0.,-0.00000494,-0.00000426,0.,0.00000047,-0.00000865,0.,
 -0.00002765,-0.00001055,0.,0.00332844,0.00401715,0.,-0.27335061,-0.121
 59676,0.,-0.01904213,-0.01735262,0.,-0.00244503,0.00405839,0.,-0.00000
 837,-0.00000881,0.,0.00007451,-0.00004502,0.,0.00002828,-0.00003514,0.
 ,-0.00001604,-0.00000007,0.,-0.00000609,0.00000668,0.,-0.00001001,-0.0
 0000724,0.,-0.00000218,-0.00001136,0.,0.00000835,0.00000652,0.,0.00095
 281,-0.00047184,0.,0.28866263,0.00027512,-0.00011459,0.,0.00010551,0.0
 0027949,0.,-0.00004366,0.00000687,0.,-0.00008529,-0.00056675,0.,-0.000
 05489,-0.00006935,0.,0.00044026,-0.00074222,0.,0.00000621,-0.00003786,
 0.,-0.00150993,0.00021790,0.,-0.00001394,0.00009096,0.,0.00208537,-0.0
 0497273,0.,0.00001420,0.00000923,0.,0.00000630,-0.00002098,0.,-0.00002
 489,0.00000332,0.,-0.00000728,0.00000890,0.,-0.03123933,-0.01184041,0.
 ,-0.12107114,-0.13002718,0.,0.01755713,0.01128273,0.,0.00303218,-0.001
 30026,0.,-0.00013439,-0.00009380,0.,-0.00002637,0.00003676,0.,0.000043
 37,-0.00003574,0.,-0.00001163,-0.00000040,0.,-0.00000616,0.00000400,0.
 ,-0.00000724,-0.00000322,0.,-0.00000200,-0.00000783,0.,0.00000231,0.00
 001679,0.,0.00049558,0.00105309,0.,0.13003778,0.13559084,0.,0.,0.00022
 205,0.,0.,-0.00116122,0.,0.,0.00003473,0.,0.,-0.00063864,0.,0.,0.00007
 538,0.,0.,-0.00018136,0.,0.,0.00000794,0.,0.,0.00036566,0.,0.,-0.00005
 953,0.,0.,0.00843222,0.,0.,0.00001492,0.,0.,0.00000667,0.,0.,0.0000104
 2,0.,0.,0.00000400,0.,0.,0.00369548,0.,0.,-0.03833066,0.,0.,0.00303790
 ,0.,0.,0.00565993,0.,0.,0.00000310,0.,0.,0.00004963,0.,0.,0.00012783,0
 .,0.,0.00000158,0.,0.,0.00000172,0.,0.,-0.00001035,0.,0.,0.00000168,0.
 ,0.,-0.00001579,0.,0.,-0.00474441,0.,0.,0.02632715,-0.00028899,-0.0002
 2615,0.,0.00084098,-0.00109659,0.,0.00000964,-0.00016072,0.,-0.0002329
 3,0.00009052,0.,0.00003696,-0.00005859,0.,-0.00474275,-0.00140428,0.,0
 .00001659,-0.00004148,0.,0.00028247,0.00019727,0.,0.00000577,0.0000988
 5,0.,-0.00100661,-0.00031798,0.,0.00001943,0.00001703,0.,0.00000843,-0
 .00002093,0.,-0.00001914,-0.00001462,0.,-0.00004640,0.00001857,0.,-0.0
 0471418,0.00195002,0.,0.00378954,0.03055361,0.,-0.06041480,-0.00152548
 ,0.,0.00234355,-0.03140765,0.,0.00001177,-0.00000509,0.,-0.00005902,0.
 00002218,0.,0.00002834,-0.00008372,0.,-0.00002380,-0.00000942,0.,-0.00
 000493,0.00000076,0.,-0.00000218,-0.00000200,0.,-0.00000467,-0.0000047
 8,0.,0.00000498,-0.00000078,0.,0.00002972,0.00140733,0.,0.00101068,-0.
 00063894,0.,0.06202624,-0.00029672,-0.00006851,0.,0.00055200,-0.000590
 46,0.,0.00006588,-0.00004876,0.,-0.00007721,0.00002310,0.,0.00000335,-
 0.00010882,0.,-0.00250236,0.00122898,0.,-0.00003074,-0.00000424,0.,-0.
 00000265,0.00008146,0.,-0.00001524,0.00003134,0.,0.00002090,0.00081594
 ,0.,0.00002908,-0.00001327,0.,-0.00001326,-0.00001908,0.,-0.00001109,-
 0.00000385,0.,-0.00005891,-0.00000211,0.,0.00298467,0.00073220,0.,-0.0
 0439274,-0.01185799,0.,-0.00224720,-0.34166045,0.,0.00374757,-0.011875
 89,0.,-0.00000570,-0.00003346,0.,-0.00000598,0.00000830,0.,0.00002279,
 0.00000461,0.,-0.00003603,-0.00000433,0.,-0.00001376,0.00000738,0.,-0.
 00001136,-0.00000783,0.,-0.00000478,-0.00001469,0.,0.00001005,0.000008
 40,0.,-0.00013875,-0.00072114,0.,0.00042377,0.00088808,0.,0.00239522,0
 .36209086,0.,0.,-0.00067693,0.,0.,0.00041978,0.,0.,0.00002430,0.,0.,0.
 00024226,0.,0.,0.00024203,0.,0.,0.00821061,0.,0.,0.00006656,0.,0.,-0.0
 0109449,0.,0.,-0.00007398,0.,0.,-0.00026522,0.,0.,0.00000117,0.,0.,-0.
 00001355,0.,0.,0.00000665,0.,0.,-0.00006877,0.,0.,0.00561336,0.,0.,0.0
 0316911,0.,0.,-0.03801689,0.,0.,0.00353855,0.,0.,0.00007684,0.,0.,-0.0
 0002209,0.,0.,0.00003549,0.,0.,-0.00000446,0.,0.,0.00000303,0.,0.,0.00
 000168,0.,0.,0.00001084,0.,0.,0.00001043,0.,0.,0.00030127,0.,0.,-0.003
 16139,0.,0.,0.02629205,0.00002263,0.00018688,0.,-0.00138686,0.00052791
 ,0.,-0.00006242,0.00005099,0.,0.00010937,0.00012959,0.,-0.00187737,-0.
 00216782,0.,0.00425328,-0.00167954,0.,-0.00004880,-0.00001290,0.,0.000
 02022,-0.00034970,0.,0.00017024,-0.00035217,0.,0.00124682,-0.00115778,
 0.,-0.00000827,-0.00001572,0.,-0.00000684,0.00002550,0.,0.00001716,0.0
 0000990,0.,0.00005130,-0.00000339,0.,0.00035899,-0.00074194,0.,-0.0025
 7816,-0.00404835,0.,-0.02145501,0.01834492,0.,-0.26170693,0.12875952,0
 .,0.00001279,0.00002859,0.,-0.00285873,-0.00310155,0.,0.00000824,0.000
 00228,0.,-0.00001520,-0.00000630,0.,0.00000812,-0.00000505,0.,0.000008
 35,0.00000231,0.,0.00000498,0.00001005,0.,-0.00000524,-0.00001347,0.,-
 0.00006357,0.00014026,0.,-0.00107504,0.00077576,0.,0.00109535,-0.00039
 082,0.,0.28576061,-0.00005505,-0.00008317,0.,0.00082308,0.00107358,0.,
 0.00002826,0.00016056,0.,0.00005630,0.00003121,0.,0.00037800,-0.001589
 99,0.,0.02935061,-0.01213910,0.,0.00018375,0.00006656,0.,0.00166939,-0
 .00008800,0.,-0.00044486,0.00074118,0.,-0.00242410,-0.00494649,0.,-0.0
 0005710,0.00009588,0.,-0.00002587,0.00001696,0.,0.00001531,0.00005788,
 0.,0.00001802,-0.00005553,0.,-0.00072225,-0.00061954,0.,-0.00285352,-0
 .00094629,0.,-0.01744589,0.01065463,0.,0.12967029,-0.14116927,0.,-0.00
 005941,-0.00000578,0.,-0.00285458,0.00048662,0.,0.00003073,-0.00051526
 ,0.,-0.00004795,-0.00005022,0.,-0.00001493,-0.00001504,0.,0.00000652,0
 .00001679,0.,-0.00000078,0.00000840,0.,-0.00001347,0.00004079,0.,0.000
 16845,0.00009170,0.,-0.00069882,0.00034437,0.,0.00026784,0.00111422,0.
 ,-0.13494797,0.14722233,0.,0.,-0.00004543,0.,0.,-0.00282644,0.,0.,0.00
 009615,0.,0.,-0.00029455,0.,0.,-0.00057194,0.,0.,0.00335611,0.,0.,0.00
 008736,0.,0.,0.00026125,0.,0.,-0.00019249,0.,0.,0.00551316,0.,0.,0.000
 04924,0.,0.,0.00000578,0.,0.,-0.00003462,0.,0.,0.00003166,0.,0.,-0.000
 11467,0.,0.,0.00802211,0.,0.,0.00428479,0.,0.,-0.03749297,0.,0.,0.0000
 5519,0.,0.,0.00182940,0.,0.,0.00011216,0.,0.,-0.00003554,0.,0.,0.00000
 748,0.,0.,-0.00001579,0.,0.,0.00001043,0.,0.,0.00000141,0.,0.,-0.00139
 896,0.,0.,0.00022335,0.,0.,-0.00486823,0.,0.,0.02394459\\0.00005988,0.
 00016633,0.,-0.00006161,-0.00016635,0.,-0.00022388,0.00022817,0.,-0.00
 037058,-0.00018203,0.,0.00037369,0.00018137,0.,0.00022565,-0.00022379,
 0.,0.00002476,0.00007800,0.,0.00003305,0.00032060,0.,-0.00003400,-0.00
 032110,0.,-0.00001827,-0.00007645,0.,0.00014759,0.00011499,0.,0.000011
 10,-0.00022685,0.,-0.00013971,-0.00005788,0.,-0.00003490,-0.00021062,0
 .,-0.00015250,-0.00012341,0.,-0.00001672,0.00022766,0.,0.00012666,0.00
 005117,0.,0.00004831,0.00021631,0.,0.00023257,0.00009113,0.,-0.0002326
 0,-0.00008912,0.,0.00012062,-0.00001825,0.,-0.00012058,0.00001832,0.,-
 0.00005956,0.00005726,0.,0.00009124,0.00001400,0.,-0.00002660,0.000039
 16,0.,-0.00006199,0.00021961,0.,0.00005965,-0.00005773,0.,-0.00008779,
 -0.00001265,0.,0.00002450,-0.00003952,0.,0.00006203,-0.00021830,0.\\\@


 TELEVISION IS CALLED A MEDIUM BECAUSE IT ISN'T
 RARE, AND IT ISN'T WELL DONE.
 Job cpu time:       0 days  0 hours 29 minutes 27.5 seconds.
 Elapsed time:       0 days  0 hours  7 minutes 22.5 seconds.
 File lengths (MBytes):  RWF=    153 Int=      0 D2E=      0 Chk=      5 Scr=      1
 Normal termination of Gaussian 16 at Sun Jun 21 18:18:37 2020.
