 Entering Gaussian System, Link 0=g16
 Input=naphthalene_opt.gjf
 Output=naphthalene_opt.log
 Initial command:
 /home/qingchun/software/g16A_modified_by_qingchun/g16/l1.exe "/scratch/qingchun/gaussian/Gau-16682.inp" -scrdir="/scratch/qingchun/gaussian/"
 Entering Link 1 = /home/qingchun/software/g16A_modified_by_qingchun/g16/l1.exe PID=     16683.
  
 Copyright (c) 1988,1990,1992,1993,1995,1998,2003,2009,2016,
            Gaussian, Inc.  All Rights Reserved.
  
 This is part of the Gaussian(R) 16 program.  It is based on
 the Gaussian(R) 09 system (copyright 2009, Gaussian, Inc.),
 the Gaussian(R) 03 system (copyright 2003, Gaussian, Inc.),
 the Gaussian(R) 98 system (copyright 1998, Gaussian, Inc.),
 the Gaussian(R) 94 system (copyright 1995, Gaussian, Inc.),
 the Gaussian 92(TM) system (copyright 1992, Gaussian, Inc.),
 the Gaussian 90(TM) system (copyright 1990, Gaussian, Inc.),
 the Gaussian 88(TM) system (copyright 1988, Gaussian, Inc.),
 the Gaussian 86(TM) system (copyright 1986, Carnegie Mellon
 University), and the Gaussian 82(TM) system (copyright 1983,
 Carnegie Mellon University). Gaussian is a federally registered
 trademark of Gaussian, Inc.
  
 This software contains proprietary and confidential information,
 including trade secrets, belonging to Gaussian, Inc.
  
 This software is provided under written license and may be
 used, copied, transmitted, or stored only in accord with that
 written license.
  
 The following legend is applicable only to US Government
 contracts under FAR:
  
                    RESTRICTED RIGHTS LEGEND
  
 Use, reproduction and disclosure by the US Government is
 subject to restrictions as set forth in subparagraphs (a)
 and (c) of the Commercial Computer Software - Restricted
 Rights clause in FAR 52.227-19.
  
 Gaussian, Inc.
 340 Quinnipiac St., Bldg. 40, Wallingford CT 06492
  
  
 ---------------------------------------------------------------
 Warning -- This program may not be used in any manner that
 competes with the business of Gaussian, Inc. or will provide
 assistance to any competitor of Gaussian, Inc.  The licensee
 of this program is prohibited from giving any competitor of
 Gaussian, Inc. access to this program.  By using this program,
 the user acknowledges that Gaussian, Inc. is engaged in the
 business of creating and licensing software in the field of
 computational chemistry and represents and warrants to the
 licensee that it is not a competitor of Gaussian, Inc. and that
 it will not use this program in any manner prohibited above.
 ---------------------------------------------------------------
  

 Cite this work as:
 Gaussian 16, Revision A.03,
 M. J. Frisch, G. W. Trucks, H. B. Schlegel, G. E. Scuseria, 
 M. A. Robb, J. R. Cheeseman, G. Scalmani, V. Barone, 
 G. A. Petersson, H. Nakatsuji, X. Li, M. Caricato, A. V. Marenich, 
 J. Bloino, B. G. Janesko, R. Gomperts, B. Mennucci, H. P. Hratchian, 
 J. V. Ortiz, A. F. Izmaylov, J. L. Sonnenberg, D. Williams-Young, 
 F. Ding, F. Lipparini, F. Egidi, J. Goings, B. Peng, A. Petrone, 
 T. Henderson, D. Ranasinghe, V. G. Zakrzewski, J. Gao, N. Rega, 
 G. Zheng, W. Liang, M. Hada, M. Ehara, K. Toyota, R. Fukuda, 
 J. Hasegawa, M. Ishida, T. Nakajima, Y. Honda, O. Kitao, H. Nakai, 
 T. Vreven, K. Throssell, J. A. Montgomery, Jr., J. E. Peralta, 
 F. Ogliaro, M. J. Bearpark, J. J. Heyd, E. N. Brothers, K. N. Kudin, 
 V. N. Staroverov, T. A. Keith, R. Kobayashi, J. Normand, 
 K. Raghavachari, A. P. Rendell, J. C. Burant, S. S. Iyengar, 
 J. Tomasi, M. Cossi, J. M. Millam, M. Klene, C. Adamo, R. Cammi, 
 J. W. Ochterski, R. L. Martin, K. Morokuma, O. Farkas, 
 J. B. Foresman, and D. J. Fox, Gaussian, Inc., Wallingford CT, 2016.
 
 ******************************************
 Gaussian 16:  ES64L-G16RevA.03 25-Dec-2016
                21-Jun-2020 
 ******************************************
 %nprocshared=4
 Will use up to    4 processors via shared memory.
 %mem=30GB
 %chk=naphthalene_opt.chk
 ----------------------
 # opt freq b3lyp/6-31G
 ----------------------
 1/18=20,19=15,26=3,38=1/1,3;
 2/9=110,12=2,17=6,18=5,40=1/2;
 3/5=1,6=6,11=2,25=1,30=1,71=1,74=-5/1,2,3;
 4//1;
 5/5=2,38=5/2;
 6/7=2,8=2,9=2,10=2,28=1/1;
 7//1,2,3,16;
 1/18=20,19=15,26=3/3(2);
 2/9=110/2;
 99//99;
 2/9=110/2;
 3/5=1,6=6,11=2,25=1,30=1,71=1,74=-5/1,2,3;
 4/5=5,16=3,69=1/1;
 5/5=2,38=5/2;
 7//1,2,3,16;
 1/18=20,19=15,26=3/3(-5);
 2/9=110/2;
 6/7=2,8=2,9=2,10=2,19=2,28=1/1;
 99/9=1/99;
 -------------------
 Title Card Required
 -------------------
 Symbolic Z-matrix:
 Charge =  0 Multiplicity = 1
 C                    -5.06081  -1.07118   0.00026 
 C                    -3.68801  -1.07118   0.00026 
 C                    -2.96607   0.15394   0.00026 
 C                    -3.68394   1.37781   0.00063 
 C                    -5.10536   1.34844   0.00079 
 C                    -5.77686   0.15046   0.0005 
 H                    -0.997    -0.77102   0.00002 
 H                    -5.62154  -2.01752   0.00018 
 H                    -3.12322  -2.0155    0.00004 
 C                    -1.54434   0.18349   0. 
 C                    -2.96119   2.60254   0.00075 
 H                    -5.6526    2.30289   0.00087 
 H                    -6.8765    0.12409   0.0006 
 C                    -1.58833   2.6026    0.00048 
 C                    -0.87232   1.38071   0.00002 
 H                    -3.52565   3.54708   0.00101 
 H                    -1.02764   3.54893   0.0003 
 H                     0.22731   1.40718  -0.00017 
 

 GradGradGradGradGradGradGradGradGradGradGradGradGradGradGradGradGradGrad
 Berny optimization.
 Initialization pass.
                           ----------------------------
                           !    Initial Parameters    !
                           ! (Angstroms and Degrees)  !
 --------------------------                            --------------------------
 ! Name  Definition              Value          Derivative Info.                !
 --------------------------------------------------------------------------------
 ! R1    R(1,2)                  1.3728         estimate D2E/DX2                !
 ! R2    R(1,6)                  1.416          estimate D2E/DX2                !
 ! R3    R(1,8)                  1.1            estimate D2E/DX2                !
 ! R4    R(2,3)                  1.422          estimate D2E/DX2                !
 ! R5    R(2,9)                  1.1003         estimate D2E/DX2                !
 ! R6    R(3,4)                  1.4189         estimate D2E/DX2                !
 ! R7    R(3,10)                 1.422          estimate D2E/DX2                !
 ! R8    R(4,5)                  1.4217         estimate D2E/DX2                !
 ! R9    R(4,11)                 1.4221         estimate D2E/DX2                !
 ! R10   R(5,6)                  1.3733         estimate D2E/DX2                !
 ! R11   R(5,12)                 1.1002         estimate D2E/DX2                !
 ! R12   R(6,13)                 1.1            estimate D2E/DX2                !
 ! R13   R(7,10)                 1.1003         estimate D2E/DX2                !
 ! R14   R(10,15)                1.3729         estimate D2E/DX2                !
 ! R15   R(11,14)                1.3729         estimate D2E/DX2                !
 ! R16   R(11,16)                1.1003         estimate D2E/DX2                !
 ! R17   R(14,15)                1.4162         estimate D2E/DX2                !
 ! R18   R(14,17)                1.1            estimate D2E/DX2                !
 ! R19   R(15,18)                1.0999         estimate D2E/DX2                !
 ! A1    A(2,1,6)              120.3763         estimate D2E/DX2                !
 ! A2    A(2,1,8)              120.6477         estimate D2E/DX2                !
 ! A3    A(6,1,8)              118.976          estimate D2E/DX2                !
 ! A4    A(1,2,3)              120.5099         estimate D2E/DX2                !
 ! A5    A(1,2,9)              120.8832         estimate D2E/DX2                !
 ! A6    A(3,2,9)              118.6069         estimate D2E/DX2                !
 ! A7    A(2,3,4)              119.0959         estimate D2E/DX2                !
 ! A8    A(2,3,10)             121.7004         estimate D2E/DX2                !
 ! A9    A(4,3,10)             119.2037         estimate D2E/DX2                !
 ! A10   A(3,4,5)              119.2103         estimate D2E/DX2                !
 ! A11   A(3,4,11)             119.0596         estimate D2E/DX2                !
 ! A12   A(5,4,11)             121.73           estimate D2E/DX2                !
 ! A13   A(4,5,6)              120.4559         estimate D2E/DX2                !
 ! A14   A(4,5,12)             118.6441         estimate D2E/DX2                !
 ! A15   A(6,5,12)             120.8999         estimate D2E/DX2                !
 ! A16   A(1,6,5)              120.3516         estimate D2E/DX2                !
 ! A17   A(1,6,13)             119.0027         estimate D2E/DX2                !
 ! A18   A(5,6,13)             120.6457         estimate D2E/DX2                !
 ! A19   A(3,10,7)             118.6409         estimate D2E/DX2                !
 ! A20   A(3,10,15)            120.4968         estimate D2E/DX2                !
 ! A21   A(7,10,15)            120.8623         estimate D2E/DX2                !
 ! A22   A(4,11,14)            120.5491         estimate D2E/DX2                !
 ! A23   A(4,11,16)            118.5913         estimate D2E/DX2                !
 ! A24   A(14,11,16)           120.8596         estimate D2E/DX2                !
 ! A25   A(11,14,15)           120.3669         estimate D2E/DX2                !
 ! A26   A(11,14,17)           120.6492         estimate D2E/DX2                !
 ! A27   A(15,14,17)           118.9839         estimate D2E/DX2                !
 ! A28   A(10,15,14)           120.3239         estimate D2E/DX2                !
 ! A29   A(10,15,18)           120.685          estimate D2E/DX2                !
 ! A30   A(14,15,18)           118.991          estimate D2E/DX2                !
 ! D1    D(6,1,2,3)             -0.011          estimate D2E/DX2                !
 ! D2    D(6,1,2,9)           -179.9971         estimate D2E/DX2                !
 ! D3    D(8,1,2,3)            179.9952         estimate D2E/DX2                !
 ! D4    D(8,1,2,9)              0.009          estimate D2E/DX2                !
 ! D5    D(2,1,6,5)             -0.0029         estimate D2E/DX2                !
 ! D6    D(2,1,6,13)          -179.9936         estimate D2E/DX2                !
 ! D7    D(8,1,6,5)            179.991          estimate D2E/DX2                !
 ! D8    D(8,1,6,13)             0.0003         estimate D2E/DX2                !
 ! D9    D(1,2,3,4)              0.0171         estimate D2E/DX2                !
 ! D10   D(1,2,3,10)          -179.9875         estimate D2E/DX2                !
 ! D11   D(9,2,3,4)           -179.9964         estimate D2E/DX2                !
 ! D12   D(9,2,3,10)            -0.0011         estimate D2E/DX2                !
 ! D13   D(2,3,4,5)             -0.0096         estimate D2E/DX2                !
 ! D14   D(2,3,4,11)           179.9947         estimate D2E/DX2                !
 ! D15   D(10,3,4,5)           179.995          estimate D2E/DX2                !
 ! D16   D(10,3,4,11)           -0.0008         estimate D2E/DX2                !
 ! D17   D(2,3,10,7)            -0.0135         estimate D2E/DX2                !
 ! D18   D(2,3,10,15)         -179.9995         estimate D2E/DX2                !
 ! D19   D(4,3,10,7)           179.9818         estimate D2E/DX2                !
 ! D20   D(4,3,10,15)           -0.0042         estimate D2E/DX2                !
 ! D21   D(3,4,5,6)             -0.004          estimate D2E/DX2                !
 ! D22   D(3,4,5,12)          -179.9878         estimate D2E/DX2                !
 ! D23   D(11,4,5,6)           179.9916         estimate D2E/DX2                !
 ! D24   D(11,4,5,12)            0.0078         estimate D2E/DX2                !
 ! D25   D(3,4,11,14)            0.0014         estimate D2E/DX2                !
 ! D26   D(3,4,11,16)          179.9984         estimate D2E/DX2                !
 ! D27   D(5,4,11,14)         -179.9942         estimate D2E/DX2                !
 ! D28   D(5,4,11,16)            0.0027         estimate D2E/DX2                !
 ! D29   D(4,5,6,1)              0.0104         estimate D2E/DX2                !
 ! D30   D(4,5,6,13)          -179.999          estimate D2E/DX2                !
 ! D31   D(12,5,6,1)           179.9938         estimate D2E/DX2                !
 ! D32   D(12,5,6,13)           -0.0156         estimate D2E/DX2                !
 ! D33   D(3,10,15,14)           0.0084         estimate D2E/DX2                !
 ! D34   D(3,10,15,18)         179.9987         estimate D2E/DX2                !
 ! D35   D(7,10,15,14)        -179.9773         estimate D2E/DX2                !
 ! D36   D(7,10,15,18)           0.013          estimate D2E/DX2                !
 ! D37   D(4,11,14,15)           0.0027         estimate D2E/DX2                !
 ! D38   D(4,11,14,17)         179.9839         estimate D2E/DX2                !
 ! D39   D(16,11,14,15)       -179.9941         estimate D2E/DX2                !
 ! D40   D(16,11,14,17)         -0.013          estimate D2E/DX2                !
 ! D41   D(11,14,15,10)         -0.0078         estimate D2E/DX2                !
 ! D42   D(11,14,15,18)       -179.9982         estimate D2E/DX2                !
 ! D43   D(17,14,15,10)       -179.9892         estimate D2E/DX2                !
 ! D44   D(17,14,15,18)          0.0203         estimate D2E/DX2                !
 --------------------------------------------------------------------------------
 Trust Radius=3.00D-01 FncErr=1.00D-07 GrdErr=1.00D-06 EigMax=2.50D+02 EigMin=1.00D-04
 Number of steps in this run=    103 maximum allowed number of steps=    108.
 GradGradGradGradGradGradGradGradGradGradGradGradGradGradGradGradGradGrad

                          Input orientation:                          
 ---------------------------------------------------------------------
 Center     Atomic      Atomic             Coordinates (Angstroms)
 Number     Number       Type             X           Y           Z
 ---------------------------------------------------------------------
      1          6           0       -5.060808   -1.071178    0.000263
      2          6           0       -3.688007   -1.071178    0.000263
      3          6           0       -2.966069    0.153943    0.000263
      4          6           0       -3.683939    1.377809    0.000633
      5          6           0       -5.105355    1.348436    0.000787
      6          6           0       -5.776860    0.150461    0.000497
      7          1           0       -0.996996   -0.771022    0.000020
      8          1           0       -5.621539   -2.017524    0.000183
      9          1           0       -3.123218   -2.015500    0.000035
     10          6           0       -1.544342    0.183486    0.000000
     11          6           0       -2.961189    2.602535    0.000748
     12          1           0       -5.652596    2.302892    0.000869
     13          1           0       -6.876497    0.124094    0.000599
     14          6           0       -1.588328    2.602603    0.000475
     15          6           0       -0.872316    1.380711    0.000016
     16          1           0       -3.525645    3.547076    0.001008
     17          1           0       -1.027636    3.548934    0.000297
     18          1           0        0.227312    1.407176   -0.000166
 ---------------------------------------------------------------------
                    Distance matrix (angstroms):
                    1          2          3          4          5
     1  C    0.000000
     2  C    1.372801   0.000000
     3  C    2.426696   1.422011   0.000000
     4  C    2.809503   2.448990   1.418868   0.000000
     5  C    2.420024   2.804177   2.450175   1.421719   0.000000
     6  C    1.416027   2.419857   2.810793   2.426253   1.373340
     7  H    4.074882   2.707699   2.175502   3.440514   4.622847
     8  H    1.099995   2.152700   3.430275   3.909294   3.405310
     9  H    2.155458   1.100332   2.175127   3.439325   3.904476
    10  C    3.733593   2.483844   1.422034   2.450364   3.746722
    11  C    4.231379   3.744921   2.448597   1.422083   2.483991
    12  H    3.425575   3.904351   3.440263   2.175176   1.100209
    13  H    2.173799   3.405164   3.910542   3.429902   2.153127
    14  C    5.055174   4.231468   2.809645   2.427284   3.733954
    15  C    4.853373   3.733614   2.426677   2.811625   4.233162
    16  H    4.866723   4.621107   3.438965   2.175035   2.707305
    17  H    6.132855   5.331323   3.909410   3.430704   4.633571
    18  H    5.840073   4.633785   3.430492   3.911361   5.332991
                    6          7          8          9         10
     6  C    0.000000
     7  H    4.867877   0.000000
     8  H    2.173542   4.789589   0.000000
     9  H    3.425376   2.463645   2.498322   0.000000
    10  C    4.232647   1.100306   4.633355   2.707100   0.000000
    11  C    3.733721   3.903709   5.331267   4.620877   2.803436
    12  H    2.156015   5.578849   4.320528   5.004624   4.622730
    13  H    1.099953   5.947249   2.482226   4.320297   5.332486
    14  C    4.853535   3.425058   6.132892   4.866494   2.419517
    15  C    5.056488   2.155342   5.839788   4.074409   1.372941
    16  H    4.074919   5.004002   5.946221   5.577114   3.903755
    17  H    5.839927   4.320065   7.217299   5.945956   3.404883
    18  H    6.134282   2.498695   6.777730   4.789652   2.153178
                   11         12         13         14         15
    11  C    0.000000
    12  H    2.708036   0.000000
    13  H    4.633822   2.499019   0.000000
    14  C    1.372861   4.075304   5.840183   0.000000
    15  C    2.419968   4.868418   6.134271   1.416225   0.000000
    16  H    1.100349   2.464125   4.790096   2.155279   3.425389
    17  H    2.152742   4.789872   6.777810   1.099963   2.173779
    18  H    3.405205   5.947741   7.218754   2.173843   1.099946
                   16         17         18
    16  H    0.000000
    17  H    2.498010   0.000000
    18  H    4.320169   2.482342   0.000000
 Stoichiometry    C10H8
 Framework group  C1[X(C10H8)]
 Deg. of freedom    48
 Full point group                 C1      NOp   1
 Largest Abelian subgroup         C1      NOp   1
 Largest concise Abelian subgroup C1      NOp   1
                         Standard orientation:                         
 ---------------------------------------------------------------------
 Center     Atomic      Atomic             Coordinates (Angstroms)
 Number     Number       Type             X           Y           Z
 ---------------------------------------------------------------------
      1          6           0        2.426104   -0.708815    0.000060
      2          6           0        1.241200   -1.402057   -0.000132
      3          6           0       -0.000592   -0.709186   -0.000027
      4          6           0        0.000990    0.709681   -0.000089
      5          6           0        1.242689    1.402120   -0.000049
      6          6           0        2.427242    0.707212    0.000133
      7          1           0       -1.233064   -2.501900   -0.000215
      8          1           0        3.387976   -1.242474    0.000059
      9          1           0        1.230581   -2.502338   -0.000143
     10          6           0       -1.242645   -1.401635    0.000042
     11          6           0       -1.241303    1.401800   -0.000099
     12          1           0        1.233044    2.502286    0.000106
     13          1           0        3.389685    1.239752    0.000180
     14          6           0       -2.426293    0.708587   -0.000018
     15          6           0       -2.427269   -0.707638    0.000134
     16          1           0       -1.231082    2.502102   -0.000121
     17          1           0       -3.388124    1.242252    0.000241
     18          1           0       -3.389754   -1.240089    0.000166
 ---------------------------------------------------------------------
 Rotational constants (GHZ):           3.1209900           1.2352643           0.8849914
 Standard basis: 6-31G (6D, 7F)
 There are   106 symmetry adapted cartesian basis functions of A   symmetry.
 There are   106 symmetry adapted basis functions of A   symmetry.
   106 basis functions,   252 primitive gaussians,   106 cartesian basis functions
    34 alpha electrons       34 beta electrons
       nuclear repulsion energy       457.5564693960 Hartrees.
 NAtoms=   18 NActive=   18 NUniq=   18 SFac= 1.00D+00 NAtFMM=   60 NAOKFM=F Big=F
 Integral buffers will be    131072 words long.
 Raffenetti 2 integral format.
 Two-electron integral symmetry is turned on.
 One-electron integrals computed using PRISM.
 NBasis=   106 RedAO= T EigKep=  4.01D-04  NBF=   106
 NBsUse=   106 1.00D-06 EigRej= -1.00D+00 NBFU=   106
 ExpMin= 1.61D-01 ExpMax= 3.05D+03 ExpMxC= 4.57D+02 IAcc=3 IRadAn=         5 AccDes= 0.00D+00
 Harris functional with IExCor=  402 and IRadAn=       5 diagonalized for initial guess.
 HarFok:  IExCor=  402 AccDes= 0.00D+00 IRadAn=         5 IDoV= 1 UseB2=F ITyADJ=14
 ICtDFT=  3500011 ScaDFX=  1.000000  1.000000  1.000000  1.000000
 FoFCou: FMM=F IPFlag=           0 FMFlag=      100000 FMFlg1=           0
         NFxFlg=           0 DoJE=T BraDBF=F KetDBF=T FulRan=T
         wScrn=  0.000000 ICntrl=       500 IOpCl=  0 I1Cent=   200000004 NGrid=           0
         NMat0=    1 NMatS0=      1 NMatT0=    0 NMatD0=    1 NMtDS0=    0 NMtDT0=    0
 Petite list used in FoFCou.
 Keep R1 ints in memory in canonical form, NReq=19803246.
 Requested convergence on RMS density matrix=1.00D-08 within 128 cycles.
 Requested convergence on MAX density matrix=1.00D-06.
 Requested convergence on             energy=1.00D-06.
 No special actions if energy rises.
 Integral accuracy reduced to 1.0D-05 until final iterations.
 Initial convergence to 1.0D-05 achieved.  Increase integral accuracy.
 SCF Done:  E(RB3LYP) =  -385.806052130     A.U. after   12 cycles
            NFock= 12  Conv=0.40D-08     -V/T= 2.0056

 **********************************************************************

            Population analysis using the SCF density.

 **********************************************************************

 Orbital symmetries:
       Occupied  (A) (A) (A) (A) (A) (A) (A) (A) (A) (A) (A) (A)
                 (A) (A) (A) (A) (A) (A) (A) (A) (A) (A) (A) (A)
                 (A) (A) (A) (A) (A) (A) (A) (A) (A) (A)
       Virtual   (A) (A) (A) (A) (A) (A) (A) (A) (A) (A) (A) (A)
                 (A) (A) (A) (A) (A) (A) (A) (A) (A) (A) (A) (A)
                 (A) (A) (A) (A) (A) (A) (A) (A) (A) (A) (A) (A)
                 (A) (A) (A) (A) (A) (A) (A) (A) (A) (A) (A) (A)
                 (A) (A) (A) (A) (A) (A) (A) (A) (A) (A) (A) (A)
                 (A) (A) (A) (A) (A) (A) (A) (A) (A) (A) (A) (A)
 The electronic state is 1-A.
 Alpha  occ. eigenvalues --  -10.19368 -10.19332 -10.18782 -10.18780 -10.18758
 Alpha  occ. eigenvalues --  -10.18756 -10.18716 -10.18713 -10.18702 -10.18701
 Alpha  occ. eigenvalues --   -0.87774  -0.82386  -0.77421  -0.74243  -0.71991
 Alpha  occ. eigenvalues --   -0.62540  -0.61102  -0.59747  -0.51400  -0.50659
 Alpha  occ. eigenvalues --   -0.49524  -0.44632  -0.44290  -0.41840  -0.41791
 Alpha  occ. eigenvalues --   -0.39933  -0.39122  -0.36749  -0.33680  -0.33065
 Alpha  occ. eigenvalues --   -0.32669  -0.28417  -0.24387  -0.21518
 Alpha virt. eigenvalues --   -0.03392  -0.00246   0.03596   0.09146   0.10397
 Alpha virt. eigenvalues --    0.11022   0.11740   0.16283   0.16440   0.17353
 Alpha virt. eigenvalues --    0.17880   0.20271   0.20417   0.24864   0.29096
 Alpha virt. eigenvalues --    0.31358   0.32221   0.32929   0.33645   0.36254
 Alpha virt. eigenvalues --    0.49474   0.50372   0.51160   0.52934   0.52992
 Alpha virt. eigenvalues --    0.54811   0.56832   0.57631   0.58510   0.59637
 Alpha virt. eigenvalues --    0.61416   0.61883   0.63002   0.63298   0.64315
 Alpha virt. eigenvalues --    0.64798   0.65669   0.67270   0.67313   0.67648
 Alpha virt. eigenvalues --    0.69396   0.69756   0.75826   0.82912   0.83457
 Alpha virt. eigenvalues --    0.84202   0.84254   0.85103   0.86566   0.89940
 Alpha virt. eigenvalues --    0.90898   0.93892   0.95294   0.98492   1.00072
 Alpha virt. eigenvalues --    1.02997   1.07341   1.10473   1.11131   1.12249
 Alpha virt. eigenvalues --    1.13762   1.18847   1.24165   1.24561   1.30799
 Alpha virt. eigenvalues --    1.36557   1.46494   1.49088   1.51652   1.55758
 Alpha virt. eigenvalues --    1.91832   1.93632
          Condensed to atoms (all electrons):
               1          2          3          4          5          6
     1  C    4.936973   0.520294  -0.031855  -0.030250  -0.048041   0.496216
     2  C    0.520294   5.048596   0.445718  -0.046734  -0.054115  -0.047785
     3  C   -0.031855   0.445718   4.840215   0.485577  -0.046914  -0.030297
     4  C   -0.030250  -0.046734   0.485577   4.839965   0.446104  -0.031542
     5  C   -0.048041  -0.054115  -0.046914   0.446104   5.048030   0.520053
     6  C    0.496216  -0.047785  -0.030297  -0.031542   0.520053   4.937277
     7  H    0.000276  -0.004798  -0.038105   0.003893  -0.000229   0.000023
     8  H    0.349207  -0.028555   0.003434   0.000890   0.004261  -0.034689
     9  H   -0.034860   0.347910  -0.038129   0.003913   0.000736   0.003971
    10  C    0.007305  -0.051593   0.445914  -0.046839   0.011289   0.000000
    11  C    0.000008   0.011359  -0.046653   0.445535  -0.051646   0.007310
    12  H    0.003963   0.000730   0.003900  -0.038081   0.347970  -0.034820
    13  H   -0.034642   0.004254   0.000897   0.003424  -0.028545   0.349174
    14  C    0.000038   0.000009  -0.030263  -0.031815   0.007299  -0.000416
    15  C   -0.000417   0.007311  -0.031520  -0.030302  -0.000003   0.000039
    16  H    0.000023  -0.000231   0.003918  -0.038174  -0.004788   0.000275
    17  H    0.000000   0.000004   0.000890   0.003432  -0.000192   0.000003
    18  H    0.000003  -0.000192   0.003417   0.000897   0.000004   0.000000
               7          8          9         10         11         12
     1  C    0.000276   0.349207  -0.034860   0.007305   0.000008   0.003963
     2  C   -0.004798  -0.028555   0.347910  -0.051593   0.011359   0.000730
     3  C   -0.038105   0.003434  -0.038129   0.445914  -0.046653   0.003900
     4  C    0.003893   0.000890   0.003913  -0.046839   0.445535  -0.038081
     5  C   -0.000229   0.004261   0.000736   0.011289  -0.051646   0.347970
     6  C    0.000023  -0.034689   0.003971   0.000000   0.007310  -0.034820
     7  H    0.589321  -0.000008   0.005700   0.347998   0.000730   0.000002
     8  H   -0.000008   0.587995  -0.004054  -0.000192   0.000004  -0.000174
     9  H    0.005700  -0.004054   0.589481  -0.004785  -0.000231   0.000016
    10  C    0.347998  -0.000192  -0.004785   5.048025  -0.054136  -0.000229
    11  C    0.000730   0.000004  -0.000231  -0.054136   5.048676  -0.004801
    12  H    0.000002  -0.000174   0.000016  -0.000229  -0.004801   0.589187
    13  H    0.000000  -0.004134  -0.000174   0.000004  -0.000193  -0.004029
    14  C    0.003973   0.000000   0.000023  -0.048095   0.520510   0.000274
    15  C   -0.034876   0.000003   0.000276   0.520179  -0.047769   0.000023
    16  H    0.000016   0.000000   0.000002   0.000737   0.347913   0.005701
    17  H   -0.000174   0.000000   0.000000   0.004264  -0.028551  -0.000008
    18  H   -0.004037   0.000000  -0.000008  -0.028503   0.004250   0.000000
              13         14         15         16         17         18
     1  C   -0.034642   0.000038  -0.000417   0.000023   0.000000   0.000003
     2  C    0.004254   0.000009   0.007311  -0.000231   0.000004  -0.000192
     3  C    0.000897  -0.030263  -0.031520   0.003918   0.000890   0.003417
     4  C    0.003424  -0.031815  -0.030302  -0.038174   0.003432   0.000897
     5  C   -0.028545   0.007299  -0.000003  -0.004788  -0.000192   0.000004
     6  C    0.349174  -0.000416   0.000039   0.000275   0.000003   0.000000
     7  H    0.000000   0.003973  -0.034876   0.000016  -0.000174  -0.004037
     8  H   -0.004134   0.000000   0.000003   0.000000   0.000000   0.000000
     9  H   -0.000174   0.000023   0.000276   0.000002   0.000000  -0.000008
    10  C    0.000004  -0.048095   0.520179   0.000737   0.004264  -0.028503
    11  C   -0.000193   0.520510  -0.047769   0.347913  -0.028551   0.004250
    12  H   -0.004029   0.000274   0.000023   0.005701  -0.000008   0.000000
    13  H    0.587955   0.000003   0.000000  -0.000008   0.000000   0.000000
    14  C    0.000003   4.936894   0.496057  -0.034881   0.349202  -0.034631
    15  C    0.000000   0.496057   4.937269   0.003976  -0.034681   0.349157
    16  H   -0.000008  -0.034881   0.003976   0.589658  -0.004060  -0.000174
    17  H    0.000000   0.349202  -0.034681  -0.004060   0.587985  -0.004125
    18  H    0.000000  -0.034631   0.349157  -0.000174  -0.004125   0.587867
 Mulliken charges:
               1
     1  C   -0.134241
     2  C   -0.152181
     3  C    0.059854
     4  C    0.060106
     5  C   -0.151274
     6  C   -0.134793
     7  H    0.130294
     8  H    0.126013
     9  H    0.130212
    10  C   -0.151342
    11  C   -0.152316
    12  H    0.130376
    13  H    0.126013
    14  C   -0.134181
    15  C   -0.134723
    16  H    0.130097
    17  H    0.126011
    18  H    0.126075
 Sum of Mulliken charges =   0.00000
 Mulliken charges with hydrogens summed into heavy atoms:
               1
     1  C   -0.008229
     2  C   -0.021969
     3  C    0.059854
     4  C    0.060106
     5  C   -0.020898
     6  C   -0.008780
    10  C   -0.021047
    11  C   -0.022219
    14  C   -0.008170
    15  C   -0.008647
 Electronic spatial extent (au):  <R**2>=           1290.0172
 Charge=              0.0000 electrons
 Dipole moment (field-independent basis, Debye):
    X=              0.0002    Y=             -0.0003    Z=              0.0001  Tot=              0.0004
 Quadrupole moment (field-independent basis, Debye-Ang):
   XX=            -51.2306   YY=            -51.4307   ZZ=            -62.7258
   XY=              0.0069   XZ=             -0.0003   YZ=              0.0010
 Traceless Quadrupole moment (field-independent basis, Debye-Ang):
   XX=              3.8984   YY=              3.6983   ZZ=             -7.5967
   XY=              0.0069   XZ=             -0.0003   YZ=              0.0010
 Octapole moment (field-independent basis, Debye-Ang**2):
  XXX=             -0.0151  YYY=             -0.0005  ZZZ=              0.0001  XYY=              0.0054
  XXY=             -0.0041  XXZ=              0.0036  XZZ=              0.0004  YZZ=             -0.0006
  YYZ=             -0.0006  XYZ=             -0.0006
 Hexadecapole moment (field-independent basis, Debye-Ang**3):
 XXXX=          -1080.2509 YYYY=           -480.1480 ZZZZ=            -65.1596 XXXY=              0.0354
 XXXZ=             -0.0070 YYYX=              0.0491 YYYZ=              0.0063 ZZZX=             -0.0002
 ZZZY=              0.0010 XXYY=           -265.6960 XXZZ=           -231.9075 YYZZ=           -107.8707
 XXYZ=              0.0044 YYXZ=              0.0015 ZZXY=              0.0011
 N-N= 4.575564693960D+02 E-N=-1.809473533362D+03  KE= 3.836558692283D+02
 Calling FoFJK, ICntrl=      2127 FMM=F ISym2X=0 I1Cent= 0 IOpClX= 0 NMat=1 NMatS=1 NMatT=0.
 ***** Axes restored to original set *****
 -------------------------------------------------------------------
 Center     Atomic                   Forces (Hartrees/Bohr)
 Number     Number              X              Y              Z
 -------------------------------------------------------------------
      1        6          -0.010096729   -0.012454542    0.000011786
      2        6           0.008394036   -0.009555694   -0.000025115
      3        6           0.006143727   -0.011226830    0.000013709
      4        6          -0.005791646    0.011189240   -0.000000481
      5        6          -0.004490281    0.011262923   -0.000019287
      6        6          -0.015527262   -0.002211463    0.000015225
      7        1          -0.004328912    0.008076250   -0.000013950
      8        1           0.005609210    0.007700049   -0.000001589
      9        1          -0.005007999    0.007681448    0.000004791
     10        6           0.004354120   -0.011674574    0.000015785
     11        6          -0.008378061    0.009715868    0.000003550
     12        1           0.004251193   -0.008069467    0.000008223
     13        1           0.009443253    0.001103338   -0.000005692
     14        6           0.009998791    0.012316045   -0.000032586
     15        6           0.015481502    0.002663225    0.000013483
     16        1           0.004997975   -0.007679551   -0.000001223
     17        1          -0.005606836   -0.007684830    0.000013987
     18        1          -0.009446079   -0.001151434   -0.000000617
 -------------------------------------------------------------------
 Cartesian Forces:  Max     0.015527262 RMS     0.007005327

 GradGradGradGradGradGradGradGradGradGradGradGradGradGradGradGradGradGrad
 Berny optimization.
 FormGI is forming the generalized inverse of G from B-inverse, IUseBI=4.
 Internal  Forces:  Max     0.013168382 RMS     0.003573306
 Search for a local minimum.
 Step number   1 out of a maximum of  103
 All quantities printed in internal units (Hartrees-Bohrs-Radians)
 Mixed Optimization -- RFO/linear search
 Second derivative matrix not updated -- first step.
 ITU=  0
     Eigenvalues ---    0.01806   0.01817   0.01818   0.01995   0.02012
     Eigenvalues ---    0.02032   0.02051   0.02129   0.02130   0.02159
     Eigenvalues ---    0.02159   0.02190   0.02222   0.02287   0.02305
     Eigenvalues ---    0.16000   0.16000   0.16000   0.16000   0.16000
     Eigenvalues ---    0.16000   0.16000   0.16000   0.22000   0.22000
     Eigenvalues ---    0.22333   0.22797   0.24282   0.24714   0.33644
     Eigenvalues ---    0.33645   0.33648   0.33659   0.33683   0.33686
     Eigenvalues ---    0.33687   0.33688   0.37465   0.39658   0.40110
     Eigenvalues ---    0.41032   0.42246   0.42558   0.42923   0.48396
     Eigenvalues ---    0.48613   0.49798   0.49828
 RFO step:  Lambda=-3.20270827D-03 EMin= 1.80597828D-02
 Linear search not attempted -- first point.
 Iteration  1 RMS(Cart)=  0.00911466 RMS(Int)=  0.00003291
 Iteration  2 RMS(Cart)=  0.00004577 RMS(Int)=  0.00000292
 Iteration  3 RMS(Cart)=  0.00000000 RMS(Int)=  0.00000292
 Variable       Old X    -DE/DX   Delta X   Delta X   Delta X     New X
                                 (Linear)    (Quad)   (Total)
    R1        2.59422   0.00688   0.00000   0.01347   0.01347   2.60769
    R2        2.67590   0.00485   0.00000   0.01094   0.01093   2.68684
    R3        2.07869  -0.00948   0.00000  -0.02789  -0.02789   2.05080
    R4        2.68721   0.00385   0.00000   0.00921   0.00921   2.69642
    R5        2.07933  -0.00916   0.00000  -0.02698  -0.02698   2.05235
    R6        2.68127   0.01317   0.00000   0.03115   0.03116   2.71243
    R7        2.68725   0.00375   0.00000   0.00894   0.00895   2.69620
    R8        2.68666   0.00397   0.00000   0.00944   0.00944   2.69610
    R9        2.68735   0.00385   0.00000   0.00919   0.00919   2.69654
   R10        2.59524   0.00645   0.00000   0.01261   0.01261   2.60784
   R11        2.07909  -0.00911   0.00000  -0.02683  -0.02683   2.05227
   R12        2.07861  -0.00947   0.00000  -0.02784  -0.02784   2.05077
   R13        2.07928  -0.00916   0.00000  -0.02696  -0.02696   2.05231
   R14        2.59448   0.00677   0.00000   0.01323   0.01323   2.60771
   R15        2.59433   0.00674   0.00000   0.01319   0.01319   2.60752
   R16        2.07936  -0.00916   0.00000  -0.02696  -0.02696   2.05240
   R17        2.67628   0.00480   0.00000   0.01083   0.01082   2.68710
   R18        2.07863  -0.00947   0.00000  -0.02785  -0.02785   2.05078
   R19        2.07860  -0.00947   0.00000  -0.02785  -0.02785   2.05075
    A1        2.10096  -0.00013   0.00000  -0.00134  -0.00135   2.09961
    A2        2.10570  -0.00087   0.00000  -0.00506  -0.00506   2.10064
    A3        2.07652   0.00100   0.00000   0.00641   0.00641   2.08293
    A4        2.10330   0.00117   0.00000   0.00524   0.00524   2.10854
    A5        2.10981  -0.00095   0.00000  -0.00488  -0.00488   2.10493
    A6        2.07008  -0.00022   0.00000  -0.00036  -0.00036   2.06972
    A7        2.07862  -0.00101   0.00000  -0.00365  -0.00365   2.07497
    A8        2.12407   0.00241   0.00000   0.00895   0.00894   2.13301
    A9        2.08050  -0.00140   0.00000  -0.00530  -0.00529   2.07521
   A10        2.08061  -0.00143   0.00000  -0.00542  -0.00541   2.07520
   A11        2.07798  -0.00087   0.00000  -0.00312  -0.00311   2.07487
   A12        2.12459   0.00230   0.00000   0.00854   0.00853   2.13312
   A13        2.10235   0.00142   0.00000   0.00615   0.00615   2.10850
   A14        2.07073  -0.00037   0.00000  -0.00100  -0.00100   2.06973
   A15        2.11010  -0.00105   0.00000  -0.00515  -0.00515   2.10495
   A16        2.10053  -0.00002   0.00000  -0.00097  -0.00098   2.09955
   A17        2.07699   0.00092   0.00000   0.00607   0.00607   2.08306
   A18        2.10566  -0.00090   0.00000  -0.00510  -0.00509   2.10057
   A19        2.07068  -0.00036   0.00000  -0.00108  -0.00108   2.06960
   A20        2.10307   0.00126   0.00000   0.00549   0.00550   2.10856
   A21        2.10944  -0.00090   0.00000  -0.00442  -0.00442   2.10503
   A22        2.10398   0.00106   0.00000   0.00468   0.00468   2.10866
   A23        2.06981  -0.00016   0.00000  -0.00011  -0.00011   2.06970
   A24        2.10940  -0.00089   0.00000  -0.00458  -0.00458   2.10482
   A25        2.10080  -0.00010   0.00000  -0.00123  -0.00124   2.09956
   A26        2.10573  -0.00089   0.00000  -0.00516  -0.00515   2.10057
   A27        2.07666   0.00099   0.00000   0.00639   0.00639   2.08305
   A28        2.10005   0.00006   0.00000  -0.00053  -0.00054   2.09951
   A29        2.10635  -0.00099   0.00000  -0.00562  -0.00562   2.10074
   A30        2.07679   0.00093   0.00000   0.00615   0.00615   2.08294
    D1       -0.00019   0.00001   0.00000   0.00023   0.00023   0.00004
    D2       -3.14154   0.00000   0.00000  -0.00005  -0.00005   3.14159
    D3        3.14151   0.00000   0.00000   0.00012   0.00012  -3.14155
    D4        0.00016   0.00000   0.00000  -0.00016  -0.00016   0.00000
    D5       -0.00005   0.00000   0.00000   0.00005   0.00005   0.00000
    D6       -3.14148   0.00000   0.00000  -0.00012  -0.00012   3.14158
    D7        3.14144   0.00000   0.00000   0.00015   0.00015   3.14159
    D8        0.00001   0.00000   0.00000  -0.00002  -0.00002  -0.00001
    D9        0.00030  -0.00001   0.00000  -0.00034  -0.00034  -0.00005
   D10       -3.14138  -0.00001   0.00000  -0.00023  -0.00023   3.14158
   D11       -3.14153   0.00000   0.00000  -0.00007  -0.00007   3.14159
   D12       -0.00002   0.00000   0.00000   0.00004   0.00004   0.00003
   D13       -0.00017   0.00000   0.00000   0.00018   0.00018   0.00001
   D14        3.14150   0.00000   0.00000   0.00013   0.00013  -3.14155
   D15        3.14150   0.00000   0.00000   0.00007   0.00007   3.14158
   D16       -0.00001   0.00000   0.00000   0.00002   0.00002   0.00001
   D17       -0.00024   0.00000   0.00000   0.00016   0.00016  -0.00007
   D18       -3.14158   0.00000   0.00000  -0.00006  -0.00006   3.14154
   D19        3.14128   0.00001   0.00000   0.00027   0.00027   3.14155
   D20       -0.00007   0.00000   0.00000   0.00006   0.00006  -0.00002
   D21       -0.00007   0.00000   0.00000   0.00009   0.00009   0.00002
   D22       -3.14138   0.00000   0.00000  -0.00019  -0.00019  -3.14157
   D23        3.14145   0.00000   0.00000   0.00014   0.00014   3.14159
   D24        0.00014   0.00000   0.00000  -0.00014  -0.00014   0.00000
   D25        0.00003   0.00000   0.00000   0.00000   0.00000   0.00002
   D26        3.14156   0.00000   0.00000   0.00007   0.00007  -3.14155
   D27       -3.14149   0.00000   0.00000  -0.00005  -0.00005  -3.14154
   D28        0.00005   0.00000   0.00000   0.00002   0.00002   0.00006
   D29        0.00018  -0.00001   0.00000  -0.00021  -0.00021  -0.00003
   D30       -3.14158   0.00000   0.00000  -0.00004  -0.00004   3.14157
   D31        3.14149   0.00000   0.00000   0.00008   0.00008   3.14156
   D32       -0.00027   0.00001   0.00000   0.00025   0.00025  -0.00002
   D33        0.00015   0.00000   0.00000  -0.00016  -0.00016  -0.00001
   D34        3.14157   0.00000   0.00000   0.00004   0.00004  -3.14158
   D35       -3.14120  -0.00001   0.00000  -0.00038  -0.00038  -3.14158
   D36        0.00023   0.00000   0.00000  -0.00018  -0.00019   0.00004
   D37        0.00005   0.00000   0.00000  -0.00010  -0.00010  -0.00005
   D38        3.14131   0.00001   0.00000   0.00024   0.00024   3.14155
   D39       -3.14149   0.00000   0.00000  -0.00017  -0.00017   3.14153
   D40       -0.00023   0.00000   0.00000   0.00017   0.00017  -0.00006
   D41       -0.00014   0.00000   0.00000   0.00018   0.00018   0.00004
   D42       -3.14156   0.00000   0.00000  -0.00001  -0.00001  -3.14157
   D43       -3.14140   0.00000   0.00000  -0.00015  -0.00015  -3.14155
   D44        0.00035  -0.00001   0.00000  -0.00034  -0.00034   0.00001
         Item               Value     Threshold  Converged?
 Maximum Force            0.013168     0.000450     NO 
 RMS     Force            0.003573     0.000300     NO 
 Maximum Displacement     0.027726     0.001800     NO 
 RMS     Displacement     0.009101     0.001200     NO 
 Predicted change in Energy=-1.615680D-03
 GradGradGradGradGradGradGradGradGradGradGradGradGradGradGradGradGradGrad

                          Input orientation:                          
 ---------------------------------------------------------------------
 Center     Atomic      Atomic             Coordinates (Angstroms)
 Number     Number       Type             X           Y           Z
 ---------------------------------------------------------------------
      1          6           0       -5.071607   -1.081011    0.000320
      2          6           0       -3.691679   -1.079705    0.000124
      3          6           0       -2.961993    0.146493    0.000255
      4          6           0       -3.687407    1.385050    0.000539
      5          6           0       -5.113660    1.348772    0.000699
      6          6           0       -5.790089    0.145910    0.000609
      7          1           0       -0.992081   -0.757435   -0.000098
      8          1           0       -5.619197   -2.017965    0.000256
      9          1           0       -3.137890   -2.013963   -0.000096
     10          6           0       -1.535686    0.182761    0.000076
     11          6           0       -2.957571    2.611232    0.000619
     12          1           0       -5.657387    2.288871    0.000893
     13          1           0       -6.875145    0.126923    0.000751
     14          6           0       -1.577731    2.612574    0.000401
     15          6           0       -0.859210    1.385515    0.000152
     16          1           0       -3.511300    3.545556    0.000870
     17          1           0       -1.030234    3.549571    0.000421
     18          1           0        0.225831    1.404610    0.000000
 ---------------------------------------------------------------------
                    Distance matrix (angstroms):
                    1          2          3          4          5
     1  C    0.000000
     2  C    1.379929   0.000000
     3  C    2.440745   1.426886   0.000000
     4  C    2.827979   2.464758   1.435356   0.000000
     5  C    2.430147   2.814166   2.464781   1.426714   0.000000
     6  C    1.421814   2.430115   2.828096   2.440643   1.380012
     7  H    4.092339   2.718766   2.167404   3.443113   4.628555
     8  H    1.085236   2.143749   3.427187   3.913096   3.404480
     9  H    2.147011   1.086057   2.167604   3.443146   3.900211
    10  C    3.754977   2.498424   1.426768   2.464832   3.763174
    11  C    4.254622   3.763234   2.464743   1.426949   2.498505
    12  H    3.420416   3.900168   3.443099   2.167421   1.086013
    13  H    2.170680   3.404469   3.913201   3.427033   2.143769
    14  C    5.084264   4.254609   2.828027   2.440809   3.754995
    15  C    4.881397   3.755021   2.440670   2.828196   4.254608
    16  H    4.882590   4.628777   3.443163   2.167672   2.719084
    17  H    6.146136   5.339802   3.913136   3.427203   4.638738
    18  H    5.851595   4.638825   3.427109   3.913287   5.339783
                    6          7          8          9         10
     6  C    0.000000
     7  H    4.882307   0.000000
     8  H    2.170613   4.795742   0.000000
     9  H    3.420411   2.486636   2.481310   0.000000
    10  C    4.254563   1.086037   4.638777   2.718943   0.000000
    11  C    3.755126   3.900137   5.339824   4.628708   2.814112
    12  H    2.147066   5.571810   4.307006   4.986205   4.628619
    13  H    1.085222   5.949163   2.485548   4.307025   5.339751
    14  C    4.881433   3.420519   6.146164   4.882513   2.430177
    15  C    5.084308   2.147065   5.851593   4.092533   1.379941
    16  H    4.092734   4.986201   5.949454   5.572045   3.900185
    17  H    5.851592   4.307176   7.214987   5.949380   3.404540
    18  H    6.146187   2.481481   6.773357   4.795963   2.143795
                   11         12         13         14         15
    11  C    0.000000
    12  H    2.718993   0.000000
    13  H    4.638877   2.481322   0.000000
    14  C    1.379840   4.092477   5.851586   0.000000
    15  C    2.430123   4.882474   6.146180   1.421951   0.000000
    16  H    1.086084   2.486955   4.796093   2.146892   3.420432
    17  H    2.143620   4.795822   6.773294   1.085227   2.170804
    18  H    3.404406   5.949300   7.215008   2.170717   1.085209
                   16         17         18
    16  H    0.000000
    17  H    2.481069   0.000000
    18  H    4.306948   2.485671   0.000000
 Stoichiometry    C10H8
 Framework group  C1[X(C10H8)]
 Deg. of freedom    48
 Full point group                 C1      NOp   1
 Largest Abelian subgroup         C1      NOp   1
 Largest concise Abelian subgroup C1      NOp   1
                         Standard orientation:                         
 ---------------------------------------------------------------------
 Center     Atomic      Atomic             Coordinates (Angstroms)
 Number     Number       Type             X           Y           Z
 ---------------------------------------------------------------------
      1          6           0        2.440696   -0.710897    0.000008
      2          6           0        1.249245   -1.407064    0.000025
      3          6           0       -0.000040   -0.717651   -0.000017
      4          6           0        0.000089    0.717705   -0.000019
      5          6           0        1.249187    1.407102    0.000001
      6          6           0        2.440723    0.710917   -0.000002
      7          1           0       -1.243184   -2.493104   -0.000057
      8          1           0        3.386686   -1.242726    0.000003
      9          1           0        1.243452   -2.493105    0.000032
     10          6           0       -1.249179   -1.407084   -0.000018
     11          6           0       -1.249317    1.407029   -0.000010
     12          1           0        1.243346    2.493100    0.000020
     13          1           0        3.386653    1.242823   -0.000005
     14          6           0       -2.440710    0.710937    0.000028
     15          6           0       -2.440701   -0.711014   -0.000002
     16          1           0       -1.243609    2.493097   -0.000048
     17          1           0       -3.386641    1.242850    0.000077
     18          1           0       -3.386672   -1.242821    0.000012
 ---------------------------------------------------------------------
 Rotational constants (GHZ):           3.1016569           1.2227427           0.8770069
 Standard basis: 6-31G (6D, 7F)
 There are   106 symmetry adapted cartesian basis functions of A   symmetry.
 There are   106 symmetry adapted basis functions of A   symmetry.
   106 basis functions,   252 primitive gaussians,   106 cartesian basis functions
    34 alpha electrons       34 beta electrons
       nuclear repulsion energy       456.0071730992 Hartrees.
 NAtoms=   18 NActive=   18 NUniq=   18 SFac= 1.00D+00 NAtFMM=   60 NAOKFM=F Big=F
 Integral buffers will be    131072 words long.
 Raffenetti 2 integral format.
 Two-electron integral symmetry is turned on.
 One-electron integrals computed using PRISM.
 NBasis=   106 RedAO= T EigKep=  4.18D-04  NBF=   106
 NBsUse=   106 1.00D-06 EigRej= -1.00D+00 NBFU=   106
 Initial guess from the checkpoint file:  "naphthalene_opt.chk"
 B after Tr=     0.000000    0.000000    0.000000
         Rot=    1.000000    0.000000    0.000000   -0.000175 Ang=  -0.02 deg.
 ExpMin= 1.61D-01 ExpMax= 3.05D+03 ExpMxC= 4.57D+02 IAcc=2 IRadAn=         4 AccDes= 0.00D+00
 Harris functional with IExCor=  402 and IRadAn=       4 diagonalized for initial guess.
 HarFok:  IExCor=  402 AccDes= 0.00D+00 IRadAn=         4 IDoV= 1 UseB2=F ITyADJ=14
 ICtDFT=  3500011 ScaDFX=  1.000000  1.000000  1.000000  1.000000
 FoFCou: FMM=F IPFlag=           0 FMFlag=      100000 FMFlg1=           0
         NFxFlg=           0 DoJE=T BraDBF=F KetDBF=T FulRan=T
         wScrn=  0.000000 ICntrl=       500 IOpCl=  0 I1Cent=   200000004 NGrid=           0
         NMat0=    1 NMatS0=      1 NMatT0=    0 NMatD0=    1 NMtDS0=    0 NMtDT0=    0
 Petite list used in FoFCou.
 Keep R1 ints in memory in canonical form, NReq=19803246.
 Requested convergence on RMS density matrix=1.00D-08 within 128 cycles.
 Requested convergence on MAX density matrix=1.00D-06.
 Requested convergence on             energy=1.00D-06.
 No special actions if energy rises.
 Integral accuracy reduced to 1.0D-05 until final iterations.
 Initial convergence to 1.0D-05 achieved.  Increase integral accuracy.
 SCF Done:  E(RB3LYP) =  -385.807627866     A.U. after   11 cycles
            NFock= 11  Conv=0.43D-08     -V/T= 2.0057
 Calling FoFJK, ICntrl=      2127 FMM=F ISym2X=0 I1Cent= 0 IOpClX= 0 NMat=1 NMatS=1 NMatT=0.
 ***** Axes restored to original set *****
 -------------------------------------------------------------------
 Center     Atomic                   Forces (Hartrees/Bohr)
 Number     Number              X              Y              Z
 -------------------------------------------------------------------
      1        6          -0.000725099    0.001128381   -0.000000093
      2        6           0.000891481    0.001776925    0.000005232
      3        6           0.001230186   -0.002335718   -0.000004555
      4        6          -0.001187760    0.002350218   -0.000000840
      5        6           0.001873957   -0.000183419    0.000001402
      6        6           0.000676152   -0.001105831   -0.000000688
      7        1           0.000358112   -0.000138130   -0.000001487
      8        1           0.000246038   -0.000283947   -0.000000859
      9        1          -0.000048597   -0.000360558   -0.000000543
     10        6          -0.001893397    0.000135678    0.000003308
     11        6          -0.000983520   -0.001757930    0.000000427
     12        1          -0.000357392    0.000155338    0.000000749
     13        1          -0.000134516    0.000342694   -0.000000264
     14        6           0.000792112   -0.001213149    0.000001492
     15        6          -0.000699267    0.001223808   -0.000003104
     16        1           0.000048352    0.000342932   -0.000002210
     17        1          -0.000229632    0.000278932    0.000001623
     18        1           0.000142788   -0.000356224    0.000000409
 -------------------------------------------------------------------
 Cartesian Forces:  Max     0.002350218 RMS     0.000835916

 GradGradGradGradGradGradGradGradGradGradGradGradGradGradGradGradGradGrad
 Berny optimization.
 Using GEDIIS/GDIIS optimizer.
 FormGI is forming the generalized inverse of G from B-inverse, IUseBI=4.
 Internal  Forces:  Max     0.001709186 RMS     0.000410618
 Search for a local minimum.
 Step number   2 out of a maximum of  103
 All quantities printed in internal units (Hartrees-Bohrs-Radians)
 Mixed Optimization -- En-DIIS/RFO-DIIS
 Update second derivatives using D2CorX and points    1    2
 DE= -1.58D-03 DEPred=-1.62D-03 R= 9.75D-01
 TightC=F SS=  1.41D+00  RLast= 9.46D-02 DXNew= 5.0454D-01 2.8391D-01
 Trust test= 9.75D-01 RLast= 9.46D-02 DXMaxT set to 3.00D-01
 ITU=  1  0
 Use linear search instead of GDIIS.
     Eigenvalues ---    0.01806   0.01817   0.01818   0.01995   0.02012
     Eigenvalues ---    0.02032   0.02051   0.02129   0.02129   0.02157
     Eigenvalues ---    0.02157   0.02191   0.02222   0.02286   0.02304
     Eigenvalues ---    0.15766   0.16000   0.16000   0.16000   0.16000
     Eigenvalues ---    0.16000   0.16000   0.16003   0.22000   0.22000
     Eigenvalues ---    0.22333   0.22747   0.24272   0.24709   0.33381
     Eigenvalues ---    0.33644   0.33647   0.33655   0.33684   0.33687
     Eigenvalues ---    0.33688   0.33760   0.37324   0.39670   0.40126
     Eigenvalues ---    0.41058   0.42044   0.42557   0.45419   0.48407
     Eigenvalues ---    0.48627   0.49817   0.50165
 RFO step:  Lambda=-3.98305522D-05 EMin= 1.80587883D-02
 Quartic linear search produced a step of -0.02122.
 Iteration  1 RMS(Cart)=  0.00151723 RMS(Int)=  0.00000125
 Iteration  2 RMS(Cart)=  0.00000131 RMS(Int)=  0.00000013
 Iteration  3 RMS(Cart)=  0.00000000 RMS(Int)=  0.00000013
 Variable       Old X    -DE/DX   Delta X   Delta X   Delta X     New X
                                 (Linear)    (Quad)   (Total)
    R1        2.60769   0.00000  -0.00029   0.00043   0.00015   2.60784
    R2        2.68684  -0.00094  -0.00023  -0.00181  -0.00204   2.68480
    R3        2.05080   0.00012   0.00059  -0.00060  -0.00001   2.05079
    R4        2.69642  -0.00168  -0.00020  -0.00357  -0.00376   2.69266
    R5        2.05235   0.00029   0.00057  -0.00009   0.00048   2.05283
    R6        2.71243   0.00103  -0.00066   0.00349   0.00283   2.71526
    R7        2.69620  -0.00159  -0.00019  -0.00336  -0.00355   2.69265
    R8        2.69610  -0.00158  -0.00020  -0.00331  -0.00352   2.69258
    R9        2.69654  -0.00171  -0.00020  -0.00364  -0.00383   2.69271
   R10        2.60784  -0.00007  -0.00027   0.00028   0.00001   2.60785
   R11        2.05227   0.00031   0.00057   0.00000   0.00056   2.05283
   R12        2.05077   0.00013   0.00059  -0.00058   0.00001   2.05079
   R13        2.05231   0.00030   0.00057  -0.00005   0.00052   2.05283
   R14        2.60771  -0.00004  -0.00028   0.00036   0.00008   2.60779
   R15        2.60752   0.00006  -0.00028   0.00054   0.00026   2.60778
   R16        2.05240   0.00027   0.00057  -0.00013   0.00044   2.05284
   R17        2.68710  -0.00102  -0.00023  -0.00198  -0.00221   2.68489
   R18        2.05078   0.00012   0.00059  -0.00059   0.00000   2.05078
   R19        2.05075   0.00014   0.00059  -0.00055   0.00004   2.05078
    A1        2.09961   0.00002   0.00003  -0.00006  -0.00003   2.09958
    A2        2.10064  -0.00037   0.00011  -0.00240  -0.00229   2.09835
    A3        2.08293   0.00036  -0.00014   0.00246   0.00232   2.08526
    A4        2.10854   0.00005  -0.00011   0.00040   0.00029   2.10883
    A5        2.10493  -0.00026   0.00010  -0.00170  -0.00159   2.10333
    A6        2.06972   0.00021   0.00001   0.00129   0.00130   2.07102
    A7        2.07497  -0.00005   0.00008  -0.00028  -0.00021   2.07476
    A8        2.13301   0.00015  -0.00019   0.00077   0.00058   2.13360
    A9        2.07521  -0.00009   0.00011  -0.00049  -0.00038   2.07483
   A10        2.07520  -0.00009   0.00011  -0.00048  -0.00037   2.07483
   A11        2.07487  -0.00004   0.00007  -0.00020  -0.00014   2.07473
   A12        2.13312   0.00013  -0.00018   0.00069   0.00051   2.13362
   A13        2.10850   0.00005  -0.00013   0.00045   0.00032   2.10882
   A14        2.06973   0.00021   0.00002   0.00130   0.00132   2.07105
   A15        2.10495  -0.00026   0.00011  -0.00175  -0.00164   2.10331
   A16        2.09955   0.00002   0.00002  -0.00002   0.00000   2.09955
   A17        2.08306   0.00034  -0.00013   0.00237   0.00224   2.08530
   A18        2.10057  -0.00037   0.00011  -0.00235  -0.00224   2.09833
   A19        2.06960   0.00022   0.00002   0.00137   0.00139   2.07099
   A20        2.10856   0.00005  -0.00012   0.00040   0.00028   2.10884
   A21        2.10503  -0.00027   0.00009  -0.00177  -0.00168   2.10335
   A22        2.10866   0.00003  -0.00010   0.00029   0.00019   2.10885
   A23        2.06970   0.00021   0.00000   0.00129   0.00129   2.07100
   A24        2.10482  -0.00024   0.00010  -0.00158  -0.00148   2.10334
   A25        2.09956   0.00003   0.00003   0.00000   0.00002   2.09959
   A26        2.10057  -0.00036   0.00011  -0.00233  -0.00222   2.09835
   A27        2.08305   0.00033  -0.00014   0.00233   0.00219   2.08524
   A28        2.09951   0.00003   0.00001   0.00000   0.00002   2.09953
   A29        2.10074  -0.00038   0.00012  -0.00246  -0.00234   2.09840
   A30        2.08294   0.00035  -0.00013   0.00245   0.00232   2.08526
    D1        0.00004   0.00000   0.00000  -0.00004  -0.00005  -0.00001
    D2        3.14159   0.00000   0.00000   0.00000   0.00000  -3.14159
    D3       -3.14155   0.00000   0.00000  -0.00004  -0.00005   3.14158
    D4        0.00000   0.00000   0.00000   0.00000   0.00000   0.00000
    D5        0.00000   0.00000   0.00000   0.00001   0.00000   0.00000
    D6        3.14158   0.00000   0.00000   0.00001   0.00001   3.14159
    D7        3.14159   0.00000   0.00000   0.00001   0.00001  -3.14159
    D8       -0.00001   0.00000   0.00000   0.00001   0.00001   0.00000
    D9       -0.00005   0.00000   0.00001   0.00004   0.00005   0.00000
   D10        3.14158   0.00000   0.00000   0.00001   0.00002  -3.14159
   D11        3.14159   0.00000   0.00000   0.00000   0.00000   3.14159
   D12        0.00003   0.00000   0.00000  -0.00003  -0.00003  -0.00001
   D13        0.00001   0.00000   0.00000  -0.00001  -0.00001   0.00000
   D14       -3.14155   0.00000   0.00000  -0.00004  -0.00004  -3.14159
   D15        3.14158   0.00000   0.00000   0.00002   0.00002  -3.14159
   D16        0.00001   0.00000   0.00000  -0.00001  -0.00001   0.00000
   D17       -0.00007   0.00000   0.00000   0.00007   0.00007  -0.00001
   D18        3.14154   0.00000   0.00000   0.00004   0.00004   3.14159
   D19        3.14155   0.00000  -0.00001   0.00004   0.00004   3.14159
   D20       -0.00002   0.00000   0.00000   0.00001   0.00001  -0.00001
   D21        0.00002   0.00000   0.00000  -0.00003  -0.00003  -0.00001
   D22       -3.14157   0.00000   0.00000  -0.00003  -0.00002   3.14159
   D23        3.14159   0.00000   0.00000   0.00000   0.00000   3.14159
   D24        0.00000   0.00000   0.00000   0.00000   0.00001   0.00000
   D25        0.00002   0.00000   0.00000  -0.00002  -0.00002   0.00000
   D26       -3.14155   0.00000   0.00000  -0.00002  -0.00003  -3.14158
   D27       -3.14154   0.00000   0.00000  -0.00005  -0.00005   3.14159
   D28        0.00006   0.00000   0.00000  -0.00005  -0.00005   0.00001
   D29       -0.00003   0.00000   0.00000   0.00003   0.00003   0.00001
   D30        3.14157   0.00000   0.00000   0.00003   0.00003  -3.14159
   D31        3.14156   0.00000   0.00000   0.00003   0.00003   3.14159
   D32       -0.00002   0.00000  -0.00001   0.00003   0.00002   0.00000
   D33       -0.00001   0.00000   0.00000   0.00001   0.00002   0.00001
   D34       -3.14158   0.00000   0.00000  -0.00001  -0.00001  -3.14159
   D35       -3.14158   0.00000   0.00001  -0.00002  -0.00001  -3.14158
   D36        0.00004   0.00000   0.00000  -0.00004  -0.00004   0.00000
   D37       -0.00005   0.00000   0.00000   0.00005   0.00005   0.00000
   D38        3.14155   0.00000  -0.00001   0.00005   0.00004   3.14159
   D39        3.14153   0.00000   0.00000   0.00005   0.00006   3.14158
   D40       -0.00006   0.00000   0.00000   0.00005   0.00005  -0.00001
   D41        0.00004   0.00000   0.00000  -0.00005  -0.00005  -0.00001
   D42       -3.14157   0.00000   0.00000  -0.00002  -0.00002   3.14159
   D43       -3.14155   0.00000   0.00000  -0.00004  -0.00004   3.14159
   D44        0.00001   0.00000   0.00001  -0.00002  -0.00001   0.00000
         Item               Value     Threshold  Converged?
 Maximum Force            0.001709     0.000450     NO 
 RMS     Force            0.000411     0.000300     NO 
 Maximum Displacement     0.005882     0.001800     NO 
 RMS     Displacement     0.001518     0.001200     NO 
 Predicted change in Energy=-2.065063D-05
 GradGradGradGradGradGradGradGradGradGradGradGradGradGradGradGradGradGrad

                          Input orientation:                          
 ---------------------------------------------------------------------
 Center     Atomic      Atomic             Coordinates (Angstroms)
 Number     Number       Type             X           Y           Z
 ---------------------------------------------------------------------
      1          6           0       -5.070656   -1.079788    0.000329
      2          6           0       -3.690649   -1.078466    0.000154
      3          6           0       -2.961641    0.145818    0.000240
      4          6           0       -3.687723    1.385719    0.000518
      5          6           0       -5.112106    1.349067    0.000702
      6          6           0       -5.788568    0.146218    0.000607
      7          1           0       -0.991884   -0.757038   -0.000143
      8          1           0       -5.616084   -2.017997    0.000254
      9          1           0       -3.138209   -2.013817   -0.000063
     10          6           0       -1.537223    0.182472    0.000060
     11          6           0       -2.958667    2.610006    0.000602
     12          1           0       -5.657503    2.288544    0.000913
     13          1           0       -6.873670    0.129685    0.000742
     14          6           0       -1.578689    2.611321    0.000421
     15          6           0       -0.860753    1.385276    0.000143
     16          1           0       -3.511108    3.545361    0.000824
     17          1           0       -1.033251    3.549521    0.000485
     18          1           0        0.224348    1.401859    0.000002
 ---------------------------------------------------------------------
                    Distance matrix (angstroms):
                    1          2          3          4          5
     1  C    0.000000
     2  C    1.380008   0.000000
     3  C    2.439273   1.424894   0.000000
     4  C    2.826877   2.464187   1.436855   0.000000
     5  C    2.429209   2.813087   2.464205   1.424854   0.000000
     6  C    1.420735   2.429221   2.826926   2.439244   1.380017
     7  H    4.091522   2.717839   2.166817   3.443684   4.627300
     8  H    1.085231   2.142433   3.424640   3.912015   3.404572
     9  H    2.146338   1.086311   2.166841   3.443663   3.899392
    10  C    3.752126   2.495437   1.424890   2.464235   3.760416
    11  C    4.251480   3.760402   2.464190   1.424921   2.495449
    12  H    3.419071   3.899393   3.443681   2.166823   1.086312
    13  H    2.171102   3.404593   3.912062   3.424600   2.142429
    14  C    5.081154   4.251459   2.826882   2.439288   3.752109
    15  C    4.878507   3.752111   2.439260   2.826970   4.251507
    16  H    4.881004   4.627312   3.443662   2.166851   2.717885
    17  H    6.142568   5.336668   3.912018   3.424655   4.634550
    18  H    5.847705   4.634568   3.424642   3.912105   5.336716
                    6          7          8          9         10
     6  C    0.000000
     7  H    4.880988   0.000000
     8  H    2.171077   4.793041   0.000000
     9  H    3.419087   2.487208   2.477879   0.000000
    10  C    4.251499   1.086312   4.634562   2.717874   0.000000
    11  C    3.752145   3.899387   5.336691   4.627307   2.813081
    12  H    2.146331   5.571675   4.306740   4.985695   4.627336
    13  H    1.085229   5.948251   2.488787   4.306771   5.336708
    14  C    4.878505   3.419091   6.142568   4.880984   2.429203
    15  C    5.081202   2.146324   5.847687   4.091533   1.379982
    16  H    4.091576   4.985692   5.948267   5.571671   3.899390
    17  H    5.847692   4.306757   7.211075   5.948241   3.404556
    18  H    6.142621   2.477914   6.768018   4.793082   2.142438
                   11         12         13         14         15
    11  C    0.000000
    12  H    2.717913   0.000000
    13  H    4.634571   2.477849   0.000000
    14  C    1.379979   4.091565   5.847679   0.000000
    15  C    2.429239   4.881055   6.142612   1.420780   0.000000
    16  H    1.086315   2.487287   4.793086   2.146317   3.419115
    17  H    2.142409   4.793096   6.767997   1.085229   2.171108
    18  H    3.404586   5.948309   7.211123   2.171115   1.085228
                   16         17         18
    16  H    0.000000
    17  H    2.477861   0.000000
    18  H    4.306766   2.488776   0.000000
 Stoichiometry    C10H8
 Framework group  C1[X(C10H8)]
 Deg. of freedom    48
 Full point group                 C1      NOp   1
 Largest Abelian subgroup         C1      NOp   1
 Largest concise Abelian subgroup C1      NOp   1
                         Standard orientation:                         
 ---------------------------------------------------------------------
 Center     Atomic      Atomic             Coordinates (Angstroms)
 Number     Number       Type             X           Y           Z
 ---------------------------------------------------------------------
      1          6           0        2.439240   -0.710388    0.000003
      2          6           0        1.247695   -1.406551   -0.000002
      3          6           0       -0.000021   -0.718416   -0.000002
      4          6           0        0.000041    0.718438   -0.000001
      5          6           0        1.247732    1.406536   -0.000004
      6          6           0        2.439272    0.710347    0.000001
      7          1           0       -1.243618   -2.492834   -0.000011
      8          1           0        3.383984   -1.244415    0.000010
      9          1           0        1.243590   -2.492854    0.000003
     10          6           0       -1.247743   -1.406530   -0.000003
     11          6           0       -1.247718    1.406551    0.000001
     12          1           0        1.243673    2.492840   -0.000004
     13          1           0        3.384015    1.244372    0.000006
     14          6           0       -2.439233    0.710396    0.000002
     15          6           0       -2.439267   -0.710384    0.000004
     16          1           0       -1.243614    2.492858   -0.000009
     17          1           0       -3.383982    1.244411    0.000005
     18          1           0       -3.384034   -1.244365    0.000004
 ---------------------------------------------------------------------
 Rotational constants (GHZ):           3.1030479           1.2244967           0.8780203
 Standard basis: 6-31G (6D, 7F)
 There are   106 symmetry adapted cartesian basis functions of A   symmetry.
 There are   106 symmetry adapted basis functions of A   symmetry.
   106 basis functions,   252 primitive gaussians,   106 cartesian basis functions
    34 alpha electrons       34 beta electrons
       nuclear repulsion energy       456.2227807242 Hartrees.
 NAtoms=   18 NActive=   18 NUniq=   18 SFac= 1.00D+00 NAtFMM=   60 NAOKFM=F Big=F
 Integral buffers will be    131072 words long.
 Raffenetti 2 integral format.
 Two-electron integral symmetry is turned on.
 One-electron integrals computed using PRISM.
 NBasis=   106 RedAO= T EigKep=  4.15D-04  NBF=   106
 NBsUse=   106 1.00D-06 EigRej= -1.00D+00 NBFU=   106
 Initial guess from the checkpoint file:  "naphthalene_opt.chk"
 B after Tr=     0.000000    0.000000    0.000000
         Rot=    1.000000    0.000000    0.000000    0.000011 Ang=   0.00 deg.
 Keep R1 ints in memory in canonical form, NReq=19803246.
 Requested convergence on RMS density matrix=1.00D-08 within 128 cycles.
 Requested convergence on MAX density matrix=1.00D-06.
 Requested convergence on             energy=1.00D-06.
 No special actions if energy rises.
 SCF Done:  E(RB3LYP) =  -385.807654055     A.U. after    8 cycles
            NFock=  8  Conv=0.89D-08     -V/T= 2.0056
 Calling FoFJK, ICntrl=      2127 FMM=F ISym2X=0 I1Cent= 0 IOpClX= 0 NMat=1 NMatS=1 NMatT=0.
 ***** Axes restored to original set *****
 -------------------------------------------------------------------
 Center     Atomic                   Forces (Hartrees/Bohr)
 Number     Number              X              Y              Z
 -------------------------------------------------------------------
      1        6          -0.000505146    0.000419537    0.000000119
      2        6           0.000312234    0.000545027   -0.000000580
      3        6           0.000494486   -0.000885460    0.000000092
      4        6          -0.000469180    0.000893456    0.000000419
      5        6           0.000598685   -0.000002875   -0.000000588
      6        6           0.000130769   -0.000635652   -0.000000021
      7        1           0.000151563   -0.000056916   -0.000000306
      8        1           0.000023833   -0.000163868    0.000000117
      9        1          -0.000023502   -0.000159727    0.000000235
     10        6          -0.000622797   -0.000019700   -0.000000113
     11        6          -0.000338757   -0.000548030    0.000000997
     12        1          -0.000147898    0.000058549    0.000000055
     13        1          -0.000131870    0.000097095    0.000000157
     14        6           0.000530599   -0.000440401   -0.000000969
     15        6          -0.000137182    0.000677558    0.000000674
     16        1           0.000025112    0.000158185   -0.000000472
     17        1          -0.000022703    0.000165102    0.000000206
     18        1           0.000131754   -0.000101879   -0.000000021
 -------------------------------------------------------------------
 Cartesian Forces:  Max     0.000893456 RMS     0.000322662

 GradGradGradGradGradGradGradGradGradGradGradGradGradGradGradGradGradGrad
 Berny optimization.
 Using GEDIIS/GDIIS optimizer.
 FormGI is forming the generalized inverse of G from B-inverse, IUseBI=4.
 Internal  Forces:  Max     0.000510090 RMS     0.000135472
 Search for a local minimum.
 Step number   3 out of a maximum of  103
 All quantities printed in internal units (Hartrees-Bohrs-Radians)
 Mixed Optimization -- En-DIIS/RFO-DIIS
 Swapping is turned off.
 Update second derivatives using D2CorX and points    1    2    3
 DE= -2.62D-05 DEPred=-2.07D-05 R= 1.27D+00
 TightC=F SS=  1.41D+00  RLast= 1.15D-02 DXNew= 5.0454D-01 3.4444D-02
 Trust test= 1.27D+00 RLast= 1.15D-02 DXMaxT set to 3.00D-01
 ITU=  1  1  0
     Eigenvalues ---    0.01806   0.01817   0.01818   0.01995   0.02011
     Eigenvalues ---    0.02031   0.02050   0.02128   0.02128   0.02157
     Eigenvalues ---    0.02157   0.02191   0.02222   0.02285   0.02304
     Eigenvalues ---    0.12972   0.16000   0.16000   0.16000   0.16000
     Eigenvalues ---    0.16000   0.16000   0.16038   0.22000   0.22000
     Eigenvalues ---    0.22172   0.22339   0.24269   0.24709   0.33111
     Eigenvalues ---    0.33644   0.33647   0.33655   0.33684   0.33687
     Eigenvalues ---    0.33688   0.33739   0.34133   0.39668   0.40123
     Eigenvalues ---    0.40624   0.41060   0.42558   0.43015   0.48406
     Eigenvalues ---    0.48625   0.49816   0.54590
 En-DIIS/RFO-DIIS/Sim-DIIS IScMMF=       -3 using points:     3    2
 RFO step:  Lambda=-7.99620292D-06.
 DidBck=F Rises=F RFO-DIIS coefs:    1.50470   -0.50470
 Iteration  1 RMS(Cart)=  0.00068002 RMS(Int)=  0.00000051
 Iteration  2 RMS(Cart)=  0.00000061 RMS(Int)=  0.00000008
 Variable       Old X    -DE/DX   Delta X   Delta X   Delta X     New X
                                 (Linear)    (Quad)   (Total)
    R1        2.60784   0.00028   0.00008   0.00076   0.00083   2.60867
    R2        2.68480  -0.00040  -0.00103  -0.00040  -0.00143   2.68337
    R3        2.05079   0.00013   0.00000   0.00037   0.00037   2.05116
    R4        2.69266  -0.00026  -0.00190   0.00075  -0.00115   2.69151
    R5        2.05283   0.00013   0.00024   0.00016   0.00040   2.05323
    R6        2.71526   0.00051   0.00143   0.00072   0.00215   2.71741
    R7        2.69265  -0.00026  -0.00179   0.00068  -0.00111   2.69154
    R8        2.69258  -0.00024  -0.00177   0.00072  -0.00105   2.69153
    R9        2.69271  -0.00027  -0.00193   0.00074  -0.00119   2.69152
   R10        2.60785   0.00027   0.00000   0.00080   0.00081   2.60866
   R11        2.05283   0.00012   0.00028   0.00012   0.00041   2.05324
   R12        2.05079   0.00013   0.00001   0.00037   0.00037   2.05116
   R13        2.05283   0.00013   0.00026   0.00014   0.00041   2.05324
   R14        2.60779   0.00029   0.00004   0.00083   0.00087   2.60865
   R15        2.60778   0.00029   0.00013   0.00075   0.00088   2.60866
   R16        2.05284   0.00012   0.00022   0.00017   0.00039   2.05323
   R17        2.68489  -0.00042  -0.00112  -0.00040  -0.00152   2.68337
   R18        2.05078   0.00013   0.00000   0.00037   0.00038   2.05116
   R19        2.05078   0.00013   0.00002   0.00036   0.00037   2.05116
    A1        2.09958  -0.00002  -0.00002  -0.00024  -0.00026   2.09932
    A2        2.09835  -0.00009  -0.00116   0.00013  -0.00103   2.09732
    A3        2.08526   0.00012   0.00117   0.00012   0.00129   2.08655
    A4        2.10883   0.00013   0.00015   0.00068   0.00082   2.10965
    A5        2.10333  -0.00017  -0.00080  -0.00065  -0.00146   2.10188
    A6        2.07102   0.00004   0.00066  -0.00002   0.00063   2.07166
    A7        2.07476  -0.00010  -0.00010  -0.00043  -0.00053   2.07423
    A8        2.13360   0.00021   0.00029   0.00088   0.00117   2.13477
    A9        2.07483  -0.00011  -0.00019  -0.00045  -0.00064   2.07419
   A10        2.07483  -0.00011  -0.00019  -0.00045  -0.00064   2.07419
   A11        2.07473  -0.00009  -0.00007  -0.00043  -0.00050   2.07423
   A12        2.13362   0.00020   0.00026   0.00088   0.00114   2.13476
   A13        2.10882   0.00012   0.00016   0.00067   0.00083   2.10966
   A14        2.07105   0.00004   0.00067  -0.00006   0.00061   2.07166
   A15        2.10331  -0.00016  -0.00083  -0.00061  -0.00144   2.10187
   A16        2.09955  -0.00002   0.00000  -0.00022  -0.00022   2.09933
   A17        2.08530   0.00011   0.00113   0.00010   0.00123   2.08653
   A18        2.09833  -0.00009  -0.00113   0.00012  -0.00101   2.09732
   A19        2.07099   0.00004   0.00070  -0.00005   0.00066   2.07165
   A20        2.10884   0.00012   0.00014   0.00066   0.00080   2.10965
   A21        2.10335  -0.00017  -0.00085  -0.00062  -0.00146   2.10189
   A22        2.10885   0.00012   0.00010   0.00069   0.00079   2.10964
   A23        2.07100   0.00004   0.00065   0.00000   0.00065   2.07165
   A24        2.10334  -0.00017  -0.00075  -0.00069  -0.00144   2.10190
   A25        2.09959  -0.00003   0.00001  -0.00027  -0.00026   2.09933
   A26        2.09835  -0.00009  -0.00112   0.00010  -0.00102   2.09734
   A27        2.08524   0.00012   0.00111   0.00017   0.00128   2.08652
   A28        2.09953  -0.00002   0.00001  -0.00020  -0.00019   2.09934
   A29        2.09840  -0.00010  -0.00118   0.00010  -0.00108   2.09732
   A30        2.08526   0.00011   0.00117   0.00010   0.00127   2.08653
    D1       -0.00001   0.00000  -0.00002   0.00003   0.00001   0.00000
    D2       -3.14159   0.00000   0.00000  -0.00001  -0.00001   3.14159
    D3        3.14158   0.00000  -0.00002   0.00003   0.00001  -3.14159
    D4        0.00000   0.00000   0.00000  -0.00001   0.00000   0.00000
    D5        0.00000   0.00000   0.00000   0.00000   0.00000   0.00000
    D6        3.14159   0.00000   0.00001   0.00000   0.00000  -3.14159
    D7       -3.14159   0.00000   0.00000  -0.00001   0.00000  -3.14159
    D8        0.00000   0.00000   0.00001  -0.00001   0.00000   0.00000
    D9        0.00000   0.00000   0.00002  -0.00003   0.00000   0.00000
   D10       -3.14159   0.00000   0.00001  -0.00001  -0.00001   3.14159
   D11        3.14159   0.00000   0.00000   0.00001   0.00001  -3.14159
   D12       -0.00001   0.00000  -0.00002   0.00002   0.00001   0.00000
   D13        0.00000   0.00000  -0.00001   0.00000   0.00000   0.00000
   D14       -3.14159   0.00000  -0.00002   0.00002   0.00000   3.14159
   D15       -3.14159   0.00000   0.00001  -0.00001   0.00000   3.14159
   D16        0.00000   0.00000   0.00000   0.00000   0.00000   0.00000
   D17       -0.00001   0.00000   0.00003  -0.00002   0.00001   0.00001
   D18        3.14159   0.00000   0.00002  -0.00001   0.00001  -3.14159
   D19        3.14159   0.00000   0.00002   0.00000   0.00001  -3.14159
   D20       -0.00001   0.00000   0.00001   0.00000   0.00001   0.00000
   D21       -0.00001   0.00000  -0.00001   0.00003   0.00001   0.00000
   D22        3.14159   0.00000  -0.00001   0.00001   0.00000   3.14159
   D23        3.14159   0.00000   0.00000   0.00001   0.00001  -3.14159
   D24        0.00000   0.00000   0.00000  -0.00001   0.00000   0.00000
   D25        0.00000   0.00000  -0.00001   0.00001   0.00000   0.00000
   D26       -3.14158   0.00000  -0.00001   0.00000  -0.00002   3.14159
   D27        3.14159   0.00000  -0.00003   0.00003   0.00000   3.14159
   D28        0.00001   0.00000  -0.00003   0.00001  -0.00002  -0.00001
   D29        0.00001   0.00000   0.00002  -0.00003  -0.00001   0.00000
   D30       -3.14159   0.00000   0.00001  -0.00002  -0.00001   3.14159
   D31        3.14159   0.00000   0.00001  -0.00001   0.00000  -3.14159
   D32        0.00000   0.00000   0.00001  -0.00001   0.00000   0.00000
   D33        0.00001   0.00000   0.00001  -0.00002  -0.00001   0.00000
   D34       -3.14159   0.00000  -0.00001   0.00000   0.00000   3.14159
   D35       -3.14158   0.00000   0.00000  -0.00001  -0.00002   3.14158
   D36        0.00000   0.00000  -0.00002   0.00001  -0.00001   0.00000
   D37        0.00000   0.00000   0.00003  -0.00003   0.00000   0.00000
   D38        3.14159   0.00000   0.00002  -0.00002   0.00001  -3.14159
   D39        3.14158   0.00000   0.00003  -0.00001   0.00001  -3.14159
   D40       -0.00001   0.00000   0.00002   0.00000   0.00002   0.00001
   D41       -0.00001   0.00000  -0.00003   0.00004   0.00001   0.00000
   D42        3.14159   0.00000  -0.00001   0.00001   0.00000   3.14159
   D43        3.14159   0.00000  -0.00002   0.00002   0.00000   3.14159
   D44        0.00000   0.00000   0.00000   0.00000  -0.00001  -0.00001
         Item               Value     Threshold  Converged?
 Maximum Force            0.000510     0.000450     NO 
 RMS     Force            0.000135     0.000300     YES
 Maximum Displacement     0.002194     0.001800     NO 
 RMS     Displacement     0.000680     0.001200     YES
 Predicted change in Energy=-3.998268D-06
 GradGradGradGradGradGradGradGradGradGradGradGradGradGradGradGradGradGrad

                          Input orientation:                          
 ---------------------------------------------------------------------
 Center     Atomic      Atomic             Coordinates (Angstroms)
 Number     Number       Type             X           Y           Z
 ---------------------------------------------------------------------
      1          6           0       -5.071226   -1.079682    0.000332
[...]
 ,-0.0000384,0.0624735,0.0227027,0.1061362,0.0000209,0.106141,-0.096408
 1,-0.0000374,0.0000206,-0.0000375,0.0624727,0.0254992,-0.0520624,-0.00
 00312,-0.1398107,0.0811883,0.0000534,-0.0000461,0.0000456,-0.1536372,0
 .1447751,-0.0753379,-0.0000486,-0.0396082,-0.0772984,0.0000136,-0.0000
 422,0.0000175,-0.1355177,0.0152888,0.0447425,0.0000213,0.1060281,-0.07
 5186,-0.0000446,0.0000314,-0.0000372,0.1261536,0.0113549,-0.089429,0.0
 000027,-0.0943805,-0.0887611,-0.0000202,0.0000017,-0.000021,0.1317638,
 0.0108235,0.1085343,0.0000312,0.0472486,-0.0707156,-0.0000354,0.000021
 8,-0.0000424,0.126155,0.0255008,-0.0520597,-0.0000314,-0.1398085,0.081
 1859,0.0000548,-0.0000461,0.0000447,-0.1536356,-0.0140356,-0.1176239,-
 0.0000348,-0.0298755,0.1207056,0.0000438,-0.0000214,0.0000514,-0.15363
 54,0.0152866,0.0447448,0.0000211,0.1060291,-0.0751883,-0.0000438,0.000
 0316,-0.0000375,0.1261534,-0.143233,-0.0076405,0.0000352,-0.0026905,0.
 0658221,-0.0000093,0.0000357,-0.0000087,0.1317632,-0.0731682,0.0826849
 ,0.0000046,0.0469513,0.1406492,0.0000357,0.0000018,0.000035,-0.135517,
 0.1447764,-0.0753362,-0.0000476,-0.0396079,-0.0773002,0.0000136,-0.000
 0439,0.0000167,-0.1355186,0.0108238,0.1085352,0.0000308,0.0472469,-0.0
 707078,-0.0000351,0.0000212,-0.0000415,0.1261555,0.0113487,-0.0894371,
 0.0000021,-0.0943811,-0.0887595,-0.0000209,-0.0000001,-0.0000229,0.131
 7633,-0.1432348,-0.0076417,0.0000345,-0.0026945,0.0658213,-0.0000095,0
 .0000364,-0.0000088,0.1317628\Polar=141.1392591,18.5621637,120.308309,
 -0.0118271,0.0111098,29.4454598\Quadrupole=2.9252178,2.8255109,-5.7507
 288,0.0889612,-0.0011314,0.0012655\PG=C01 [X(C10H8)]\NImag=0\\0.732502
 20,0.04971780,0.70233901,-0.00007096,0.00007654,0.13958101,-0.39087960
 ,-0.02886590,0.00003893,0.74873202,0.02580883,-0.13084945,-0.00001319,
 -0.04950326,0.68776760,0.00004693,-0.00000599,-0.06433855,-0.00008704,
 0.00008707,0.14106453,-0.04922730,-0.02423168,0.00000390,-0.14325293,-
 0.07925490,-0.00000199,0.69111160,-0.05378671,0.02435939,0.00000948,-0
 .05240189,-0.25820128,-0.00002112,0.02837174,0.65931434,-0.00000047,0.
 00000567,0.00791065,0.00000185,-0.00001773,-0.06935862,-0.00006440,0.0
 0006975,0.16672158,-0.04165502,0.02590562,0.00000832,0.05162752,0.0114
 8098,-0.00000424,-0.17155233,0.04844487,0.00001967,0.69111825,0.006055
 05,-0.00135156,0.00000017,0.00167720,-0.04053363,-0.00000714,0.0484453
 0,-0.22592470,-0.00002885,0.02836571,0.65930692,0.00000528,-0.00000241
 ,-0.00778834,-0.00000559,-0.00000843,0.00628368,0.00001954,-0.00002878
 ,-0.07551227,-0.00006400,0.00006961,0.16672169,0.05584900,-0.01589964,
 -0.00000850,-0.04101696,-0.02013184,0.00000168,-0.01284970,0.04766127,
 0.00000959,-0.28683313,0.00132688,0.00002838,0.66008999,0.02054533,-0.
 06126804,-0.00001314,-0.02673358,-0.01472008,0.00000217,0.03785788,0.0
 2394272,-0.00000226,0.02817872,-0.11459466,-0.00001045,0.00023262,0.77
 638993,-0.00000310,-0.00000843,0.00959111,0.00000070,0.00000130,-0.005
 55999,0.00000819,-0.00000363,0.00628440,0.00003259,-0.00000686,-0.0693
 6132,-0.00006859,0.00009475,0.14106640,-0.17116423,0.10383058,0.000029
 17,-0.03123990,0.03296866,0.00001022,0.00263563,0.00105237,-0.00000121
 ,-0.02655575,-0.03695197,-0.00000089,-0.19442426,-0.13911019,-0.000003
 28,0.75199564,0.04489779,-0.25462153,-0.00003368,0.06941325,0.02582139
 ,-0.00000675,-0.01879879,-0.04564397,-0.00000320,-0.06650609,0.0016888
 7,0.00000779,-0.08443518,-0.32731718,-0.00002765,0.03878719,0.68285571
 ,0.00002050,-0.00004146,-0.06659974,0.00001563,-0.00000199,0.00959136,
 -0.00000413,-0.00000572,-0.00778822,-0.00000538,0.00000391,0.00791034,
 0.00000492,-0.00002029,-0.06433692,-0.00007547,0.00007501,0.13958018,0
 .00019437,-0.00032314,-0.00000008,0.00149764,0.00189653,-0.00000037,-0
 .01332995,0.02989815,0.00000681,-0.00480662,-0.00236035,0.00000095,-0.
 00017360,0.00167520,0.00000029,0.00012524,0.00004285,-0.00000003,0.137
 32356,0.00040710,-0.00003110,-0.00000005,-0.00129248,0.00101211,0.0000
 0084,-0.00332951,0.00231808,0.00000022,-0.00084084,0.00128311,-0.00000
 048,-0.00050990,-0.00015403,0.00000001,0.00001339,0.00035313,0.0000000
 8,-0.12957645,0.28371134,0.00000001,0.00000006,-0.00006814,-0.00000081
 ,0.00000040,-0.00331796,0.00000167,-0.00000413,0.00378861,0.00000114,-
 0.00000023,0.00503059,-0.00000004,-0.00000027,0.00015979,-0.00000004,0
 .00000007,-0.00016876,-0.00003473,0.00005692,0.02576800,-0.13103809,-0
 .12153143,-0.00000571,-0.01243952,-0.03126187,-0.00000246,-0.00502181,
 0.00217800,0.00000215,-0.00068647,0.00038988,0.00000011,-0.00136756,0.
 00307911,0.00000133,0.01111447,0.01757598,0.00000151,-0.00003160,0.000
 04847,0.00000004,0.13735606,-0.12226603,-0.27111055,-0.00001823,0.0041
 1269,0.00342052,-0.00000061,0.00098228,0.00147994,-0.00000121,0.000840
 68,0.00050594,0.,0.00411258,-0.00254616,-0.00000170,-0.01728447,-0.019
 23355,-0.00000099,-0.00003747,0.00003075,-0.00000002,0.13044572,0.2864
 9475,-0.00000583,-0.00001834,-0.03842432,0.00000277,0.00000409,0.00386
 898,0.00000196,-0.00000137,0.00877231,0.00000020,0.00000005,-0.0002420
 9,0.00000146,-0.00000156,0.00522521,-0.00000363,-0.00000557,0.00299294
 ,0.00000002,-0.00000003,0.00018906,0.00000461,0.00002119,0.02638471,-0
 .01242197,0.03107566,0.00000675,-0.13100268,0.12071397,0.00002985,0.00
 990952,-0.01636985,-0.00000321,-0.00154130,-0.00267308,0.00000046,-0.0
 0042556,-0.00069968,-0.00000007,-0.00500565,-0.00197025,0.00000143,-0.
 00002589,0.00059038,0.00000013,0.00104165,-0.00044145,-0.00000086,0.13
 806259,-0.00439745,0.00346451,0.00000048,0.12130490,-0.26699375,-0.000
 04943,0.01685822,-0.02092156,-0.00000585,-0.00419252,-0.00198198,-0.00
 000049,-0.00084026,0.00022219,0.00000017,-0.00064060,0.00158779,-0.000
 00087,-0.00129889,0.00037164,0.00000019,0.00047517,0.00100644,0.000000
 82,-0.12999284,0.28297749,0.00000159,-0.00000422,0.00419491,0.00002987
 ,-0.00004923,-0.03790563,0.00000167,-0.00000155,0.00378853,0.00000024,
 -0.00000071,0.00503080,-0.00000010,0.00000015,-0.00016670,0.00000165,-
 0.00000069,0.00810740,-0.00000014,-0.00000007,0.00028516,-0.00000073,0
 .00000094,-0.00500913,-0.00003372,0.00005469,0.02576739,0.02300788,-0.
 01144597,-0.00000400,-0.04724546,-0.02489427,0.00000302,-0.28682238,0.
 00132759,0.00002867,-0.01284973,0.04766023,0.00000970,-0.01131831,-0.0
 0508657,0.00000140,-0.00189882,0.01839004,0.00000291,-0.13114421,0.120
 79133,0.00003107,0.00027102,0.00005656,0.00000002,0.00138605,0.0019591
 0,-0.00000032,0.66007675,0.00743085,-0.01048000,-0.00000336,-0.0487708
 5,-0.00591082,0.00000477,0.02817884,-0.11459483,-0.00001048,0.03785764
 ,0.02394260,-0.00000224,-0.00508666,-0.00903292,-0.00000147,-0.0011348
 7,0.00802307,0.00000138,0.12138277,-0.26684736,-0.00005156,-0.00147505
 ,-0.00009338,0.00000013,-0.00123001,0.00112364,0.00000083,0.00023418,0
 .77640235,-0.00000114,-0.00000091,0.00557669,-0.00000054,0.00000165,0.
 00466775,0.00003280,-0.00000707,-0.06936213,0.00000820,-0.00000345,0.0
 0628427,0.00000141,-0.00000148,0.00523742,0.00000002,-0.00000114,-0.00
 033939,0.00003105,-0.00005132,-0.03790630,-0.00000021,-0.00000007,0.00
 034003,-0.00000081,0.00000039,-0.00331823,-0.00006827,0.00009716,0.141
 06616,0.01301045,-0.00950120,-0.00000317,-0.01392140,-0.00362568,0.000
 00195,0.05162678,0.00167753,-0.00000561,-0.14324845,-0.05239555,0.0000
 0175,-0.04724592,-0.04877099,-0.00000056,-0.00417437,0.02268334,0.0000
 0462,-0.00059007,-0.00060732,-0.00000005,0.00036320,-0.00015712,-0.000
 00021,0.00033858,0.00138777,0.00000018,-0.04101600,-0.02673375,0.00000
 057,0.74874079,0.01002363,-0.00688688,-0.00000229,-0.00362567,-0.00642
 915,-0.00000127,0.01148056,-0.04053243,-0.00000847,-0.07924838,-0.2581
 9330,-0.00001782,-0.02489444,-0.00591101,0.00000164,0.00380665,0.01670
 232,0.00000113,-0.00074793,0.00038669,0.00000019,0.00007250,0.00001038
 ,0.00000015,-0.00079728,-0.00066616,-0.00000002,-0.02013140,-0.0147196
 0,0.00000126,-0.04951662,0.68775855,-0.00000024,0.00000026,-0.00033940
 ,0.00000195,-0.00000124,0.00523758,-0.00000411,-0.00000720,0.00628348,
 -0.00000221,-0.00002122,-0.06935966,0.00000301,0.00000473,0.00466782,0
 .00000184,-0.00000127,0.00557655,-0.00000006,0.00000016,-0.00016671,-0
 .00000017,0.00000017,-0.00102845,-0.00000014,-0.00000030,0.00015981,0.
 00000162,0.00000209,-0.00555991,-0.00008512,0.00008659,0.14106431,-0.0
 0110524,-0.00282917,0.00000081,-0.00059008,-0.00074794,-0.00000005,-0.
 00480660,-0.00236034,0.00000094,-0.01332971,0.02989802,0.00000675,-0.1
 3114548,0.12138231,0.00003068,0.01104514,-0.01756562,-0.00000353,-0.00
 050088,0.00002191,0.00000010,0.00037958,-0.00074377,-0.00000012,0.0001
 1062,0.00016152,-0.00000018,-0.00017360,0.00167519,0.00000030,0.001497
 60,0.00189655,-0.00000037,0.13732475,-0.00415880,-0.00231250,-0.000001
 01,-0.00060736,0.00038671,0.00000016,-0.00084083,0.00128314,-0.0000004
 5,-0.00332954,0.00231813,0.00000022,0.12079058,-0.26684297,-0.00005058
 ,0.01790769,-0.02000338,-0.00000601,0.00002191,-0.00001127,-0.00000004
 ,0.00078011,-0.00108655,-0.00000030,0.00016062,-0.00007013,0.00000018,
 -0.00050992,-0.00015404,0.00000002,-0.00129255,0.00101206,0.00000082,-
 0.12957559,0.28370780,0.00000064,-0.00000116,0.00810752,-0.00000004,0.
 00000016,-0.00016671,0.00000113,-0.00000025,0.00503064,0.00000169,-0.0
 0000414,0.00378851,0.00003071,-0.00005088,-0.03790675,0.00000176,-0.00
 000116,0.00419503,0.00000009,-0.00000004,0.00021635,0.00000010,-0.0000
 0010,0.00029172,-0.00000018,0.00000018,-0.00142599,-0.00000003,-0.0000
 0026,0.00015979,-0.00000081,0.00000040,-0.00331805,-0.00003435,0.00005
 611,0.02576842,-0.01184260,-0.00440275,0.00000132,0.00080511,0.0028935
 1,0.00000102,0.00074563,0.00003716,-0.00000013,0.00127184,-0.00254908,
 0.00000063,-0.01196342,0.00384552,0.00000266,-0.34160861,-0.00410987,0
 .00003965,0.00000249,0.00002887,0.,0.00090271,0.00042553,-0.00000045,-
 0.00071997,-0.00012679,0.00000012,0.00005875,0.00001370,-0.00000014,-0
 .00061151,0.00055173,0.00000021,0.00102930,-0.00043452,-0.00000087,0.3
 6211719,0.03045807,0.00372242,-0.00000393,0.00186001,-0.00471895,-0.00
 000171,-0.00041367,-0.00092611,-0.00000005,-0.00135328,-0.00481343,-0.
 00000182,-0.03152898,0.00294431,0.00000403,-0.00337570,-0.06053829,-0.
 00000279,-0.00007848,0.00002971,0.00000001,-0.00062413,0.00101411,0.00
 000066,0.00139709,0.00001300,-0.00000022,0.00024334,0.00031483,0.00000
 017,-0.00097988,0.00078911,0.00000020,0.00048206,0.00101882,0.00000083
 ,0.00432669,0.06173288,0.00000646,0.00000069,0.00299325,0.00000085,-0.
 00000186,0.00522520,-0.00000020,-0.00000010,-0.00024209,0.00000077,-0.
 00000168,0.00877237,-0.00000251,-0.00000064,0.00386893,0.00003975,-0.0
 0000273,-0.03842475,0.,0.,0.00003142,-0.00000060,0.00000053,-0.0029371
 3,0.00000034,-0.00000002,0.00029172,-0.00000010,0.00000020,-0.00102845
 ,-0.00000001,0.,0.00034000,-0.00000074,0.00000097,-0.00500926,-0.00004
 393,0.00000463,0.02638499,-0.01503506,0.00913539,0.00000334,0.01301053
 ,0.01002371,-0.00000024,-0.04165448,0.00605474,0.00000531,-0.04922795,
 -0.05378624,-0.00000065,0.02300796,0.00743069,-0.00000115,-0.00018349,
 -0.01948673,-0.00000282,-0.00110525,-0.00415876,0.00000057,-0.00019214
 ,0.00006950,0.00000006,0.00032255,-0.00006786,-0.00000008,0.05584839,0
 .02054542,-0.00000298,-0.39088804,0.02580983,0.00004591,0.00019438,0.0
 0040710,0.00000002,-0.00014177,-0.00038583,-0.00000014,0.73251610,0.00
 913545,-0.00583131,-0.00000207,-0.00950129,-0.00688696,0.00000025,0.02
 590544,-0.00135148,-0.00000243,-0.02423210,0.02435909,0.00000564,-0.01
 144625,-0.01048019,-0.00000090,-0.00045805,0.01100825,0.00000164,-0.00
 282912,-0.00231235,-0.00000119,0.00025063,-0.00002499,-0.00000007,-0.0
 0009733,0.00015581,0.00000006,-0.01589932,-0.06126784,-0.00000855,-0.0
 2886315,-0.13084944,-0.00000609,-0.00032314,-0.00003109,0.00000006,-0.
 00032939,-0.00028141,0.00000011,0.04971614,0.70233130,0.00000332,-0.00
 000206,-0.00000270,-0.00000315,-0.00000230,-0.00033941,0.00000826,0.00
 000022,-0.00778839,0.00000374,0.00000945,0.00791081,-0.00000397,-0.000
 00336,0.00557653,-0.00000001,0.00000414,0.00028855,0.00000078,-0.00000
 109,0.00810768,0.00000009,-0.00000004,0.00021011,-0.00000008,0.0000000
 6,-0.00016877,-0.00000838,-0.00001337,0.00959107,0.00003777,-0.0000132
 7,-0.06433776,-0.00000008,-0.00000005,-0.00006813,-0.00000013,0.000000
 11,-0.00072382,-0.00006858,0.00007823,0.13958101,-0.00018342,-0.000458
 08,0.,-0.00417456,0.00380663,0.00000184,-0.02655578,-0.03695238,-0.000
 00109,0.00263547,0.00105254,-0.00000120,-0.00189886,-0.00113486,0.0000
 0004,-0.00023815,0.00083231,0.00000015,0.01104532,0.01790764,0.0000018
 4,-0.00055320,-0.00009854,-0.00000003,0.00005872,-0.00024702,-0.000000
 05,-0.19442390,-0.13911213,-0.00000415,-0.03124002,0.03296848,0.000010
 10,0.00012523,0.00001338,-0.00000004,0.00007160,0.00010263,0.00000003,
 -0.17116417,0.10383267,0.00002902,0.75199460,-0.01948676,0.01100818,0.
 00000416,0.02268350,0.01670243,-0.00000130,-0.06650577,0.00168829,0.00
 000768,-0.01879865,-0.04564332,-0.00000325,0.01839022,0.00802302,-0.00
 000114,0.00083225,-0.02062849,-0.00000315,-0.01756546,-0.02000258,-0.0
 0000132,-0.00015497,0.00013001,0.00000015,0.00048320,0.00010456,-0.000
 00005,-0.08443808,-0.32732572,-0.00002908,0.06941265,0.02582110,-0.000
 00664,0.00004285,0.00035314,0.00000007,-0.00007848,-0.00028874,-0.0000
 0007,0.04489898,-0.25462322,-0.00003373,0.03879065,0.68286713,-0.00000
 284,0.00000166,0.00028853,0.00000467,0.00000117,0.00557645,-0.00000544
 ,0.00000387,0.00791042,-0.00000413,-0.00000580,-0.00778835,0.00000293,
 0.00000139,-0.00033939,0.00000015,-0.00000318,-0.00000273,-0.00000357,
 -0.00000604,0.00419487,-0.00000005,0.00000014,-0.00072382,0.00000006,0
 .00000006,-0.00006811,0.00000400,-0.00002183,-0.06433632,0.00001564,-0
 .00000191,0.00959123,-0.00000003,0.00000008,-0.00016876,0.,-0.00000009
 ,0.00021011,0.00002028,-0.00004151,-0.06659955,-0.00007355,0.00007686,
 0.13957955,0.00032255,-0.00009732,-0.00000008,0.00033859,-0.00079728,-
 0.00000015,-0.00154132,-0.00267305,0.00000045,0.00990942,-0.01636977,-
 0.00000319,0.00138607,-0.00123013,-0.00000079,0.00005871,0.00048321,0.
 00000006,0.00011062,0.00016062,-0.00000017,0.00000202,0.00002913,0.,-0
 .00010981,-0.00019752,0.00000001,-0.00042554,-0.00069962,-0.00000007,-
 0.13100770,0.12071950,0.00002939,-0.00002591,0.00059037,0.00000013,0.0
 0002052,0.00001923,0.00000002,-0.01242123,0.03107521,0.00000669,-0.005
 00551,-0.00197031,0.00000138,0.13806681,-0.00006785,0.00015581,0.00000
 006,0.00138776,-0.00066619,-0.00000031,-0.00419253,-0.00198199,-0.0000
 0048,0.01685847,-0.02092190,-0.00000579,0.00195911,0.00112361,0.000000
 38,-0.00024702,0.00010458,0.00000006,0.00016151,-0.00007013,0.00000017
 ,-0.00007821,0.00003018,0.00000001,-0.00019752,-0.00040231,-0.00000007
 ,-0.00084025,0.00022216,0.00000017,0.12130973,-0.26699441,-0.00004875,
 -0.00129889,0.00037167,0.00000019,-0.00006671,-0.00002137,-0.00000002,
 -0.00439762,0.00346507,0.00000047,-0.00064071,0.00158775,-0.00000085,-
 0.12999776,0.28297812,-0.00000008,0.00000006,-0.00016876,0.00000018,-0
 .00000003,0.00015979,0.00000024,-0.00000072,0.00503071,0.00000170,-0.0
 0000160,0.00378865,-0.00000032,0.00000083,-0.00331816,-0.00000005,-0.0
 0000004,-0.00006812,-0.00000018,0.00000019,-0.00142602,0.,0.,0.0000314
 2,0.00000001,-0.00000007,0.00021633,-0.00000010,0.00000013,-0.00016667
 ,0.00002931,-0.00004848,-0.03790484,-0.00000014,-0.00000007,0.00028517
 ,0.00000001,-0.00000003,0.00018908,0.00000161,-0.00000416,0.00419472,0
 .00000160,-0.00000072,0.00810754,-0.00003320,0.00005396,0.02576663,-0.
 00019214,0.00025063,0.00000009,0.00036320,0.00007251,-0.00000017,-0.00
 068644,0.00038987,0.00000011,-0.00502171,0.00217807,0.00000209,0.00027
 100,-0.00147508,-0.00000020,-0.00055320,-0.00015496,-0.00000004,0.0003
 7956,0.00078008,0.00000011,-0.00000540,-0.00002701,0.,0.00000202,-0.00
 007821,0.,-0.00136748,0.00307906,0.00000131,-0.01243901,-0.03126127,-0
 .00000260,-0.00003160,0.00004848,0.00000003,-0.00009491,-0.00014289,-0
 .00000001,-0.13104339,-0.12153356,-0.00000657,0.01111416,0.01757620,0.
 00000159,0.00104168,0.00047527,-0.00000070,0.13736088,0.00006952,-0.00
 002500,-0.00000005,-0.00015713,0.00001036,0.00000018,0.00084071,0.0005
 0594,0.,0.00098239,0.00147993,-0.00000124,0.00005654,-0.00009336,-0.00
 000007,-0.00009852,0.00013002,0.00000014,-0.00074377,-0.00108656,-0.00
 000011,-0.00002701,-0.00002365,-0.00000001,0.00002913,0.00003018,0.,0.
 00411262,-0.00254628,-0.00000171,0.00411277,0.00342110,-0.00000060,-0.
 00003747,0.00003075,-0.00000002,-0.00001881,-0.00000418,0.,-0.12226670
 ,-0.27110138,-0.00001955,-0.01728497,-0.01923511,-0.00000113,-0.000441
 56,0.00100631,0.00000096,0.13044678,0.28648677,0.00000005,-0.00000006,
 0.00021011,-0.00000020,0.00000015,-0.00102844,0.00000016,0.00000007,-0
 .00024208,0.00000191,-0.00000139,0.00877242,0.00000003,0.00000013,0.00
 034005,-0.00000004,0.00000013,-0.00072384,-0.00000011,-0.00000030,0.00
 029169,0.,-0.00000001,0.00007866,0.,0.,0.00003142,0.00000146,-0.000001
 54,0.00522513,0.00000286,0.00000403,0.00386891,0.00000002,-0.00000003,
 0.00018906,0.,0.00000002,-0.00002022,-0.00000685,-0.00001978,-0.038425
 24,-0.00000361,-0.00000556,0.00299338,-0.00000084,0.00000081,-0.005009
 19,0.00000555,0.00002266,0.02638530,-0.00014176,-0.00032939,-0.0000001
 2,-0.00061151,0.00055172,0.00000021,0.00127185,-0.00254906,0.00000058,
 0.00074565,0.00003715,-0.00000012,0.00005874,0.00001370,-0.00000014,0.
 00007160,-0.00007848,0.,0.00102929,-0.00043452,-0.00000085,-0.00009491
 ,-0.00001882,0.,0.00002052,-0.00006671,0.00000001,-0.01196340,0.003845
 31,0.00000265,0.00080509,0.00289355,0.00000100,0.00000248,0.00002887,0
 .,-0.00004234,-0.00000629,0.00000001,-0.01184295,-0.00440283,0.0000012
 8,-0.34160753,-0.00411203,0.00003889,-0.00071997,-0.00012680,0.0000001
 1,0.00090278,0.00042550,-0.00000043,0.36211636,-0.00038582,-0.00028141
 ,0.00000012,-0.00097990,0.00078913,0.00000020,-0.00135329,-0.00481349,
 -0.00000188,-0.00041368,-0.00092611,-0.00000005,0.00024335,0.00031482,
 0.00000017,0.00010263,-0.00028874,-0.00000009,0.00048214,0.00101881,0.
 00000085,-0.00014289,-0.00000418,0.00000002,0.00001923,-0.00002137,-0.
 00000004,-0.03152922,0.00294415,0.00000397,0.00186002,-0.00471892,-0.0
 0000171,-0.00007848,0.00002971,0.00000001,-0.00000629,0.00001329,0.,0.
 03045824,0.00372213,-0.00000387,-0.00337825,-0.06053842,-0.00000289,0.
 00139707,0.00001302,-0.00000022,-0.00062397,0.00101416,0.00000067,0.00
 432911,0.06173340,-0.00000015,0.00000011,-0.00072384,-0.00000002,0.000
 00001,0.00034000,0.00000074,-0.00000174,0.00877246,-0.00000019,-0.0000
 0014,-0.00024210,-0.00000010,0.00000020,-0.00102842,0.00000004,-0.0000
 0007,0.00021010,-0.00000073,0.00000099,-0.00500933,-0.00000001,0.,-0.0
 0002022,0.00000002,-0.00000002,0.00018909,-0.00000266,-0.00000059,0.00
 386910,0.00000088,-0.00000185,0.00522508,0.,0.,0.00003142,0.00000002,0
 .,0.00007866,0.00000641,0.00000075,0.00299329,0.00003910,-0.00000291,-
 0.03842507,0.00000035,-0.00000002,0.00029172,-0.00000059,0.00000054,-0
 .00293712,-0.00004311,0.00000475,0.02638515\\0.00001215,0.00000692,0.0
 0000010,-0.00001549,0.00005811,-0.00000018,-0.00002957,0.00001876,0.00
 000004,0.00002660,-0.00002228,0.00000012,0.00003593,-0.00005005,-0.000
 00059,0.00001593,0.00001349,0.00000017,-0.00000115,-0.00000387,-0.0000
 0027,-0.00001488,-0.00000317,-0.00000002,0.00000221,-0.00000002,0.0000
 0011,-0.00002935,0.00005082,0.00000016,0.00001726,-0.00005124,0.000000
 47,-0.00000044,0.00000390,0.00000019,-0.00001010,-0.00001299,0.0000000
 3,-0.00001557,-0.00001044,-0.00000055,-0.00001851,-0.00001163,0.000000
 31,-0.00000290,-0.00000210,-0.00000026,0.00001768,0.00000271,0.0000001
 9,0.00001018,0.00001309,-0.00000003\\\@


 DO YOU KNOW THAT THE LETTERS IN "EPISCOPAL", WHEN
 REARRANGED, SPELL "PEPSI COLA"?
 Job cpu time:       0 days  0 hours  8 minutes 33.1 seconds.
 Elapsed time:       0 days  0 hours  2 minutes  8.5 seconds.
 File lengths (MBytes):  RWF=     33 Int=      0 D2E=      0 Chk=      2 Scr=      1
 Normal termination of Gaussian 16 at Sun Jun 21 11:48:17 2020.
