 Entering Gaussian System, Link 0=g16
 Input=phenanthrene_opt.gjf
 Output=phenanthrene_opt.log
 Initial command:
 /home/qingchun/software/g16A_modified_by_qingchun/g16/l1.exe "/scratch/qingchun/gaussian/Gau-28252.inp" -scrdir="/scratch/qingchun/gaussian/"
 Entering Link 1 = /home/qingchun/software/g16A_modified_by_qingchun/g16/l1.exe PID=     28253.
  
 Copyright (c) 1988,1990,1992,1993,1995,1998,2003,2009,2016,
            Gaussian, Inc.  All Rights Reserved.
  
 This is part of the Gaussian(R) 16 program.  It is based on
 the Gaussian(R) 09 system (copyright 2009, Gaussian, Inc.),
 the Gaussian(R) 03 system (copyright 2003, Gaussian, Inc.),
 the Gaussian(R) 98 system (copyright 1998, Gaussian, Inc.),
 the Gaussian(R) 94 system (copyright 1995, Gaussian, Inc.),
 the Gaussian 92(TM) system (copyright 1992, Gaussian, Inc.),
 the Gaussian 90(TM) system (copyright 1990, Gaussian, Inc.),
 the Gaussian 88(TM) system (copyright 1988, Gaussian, Inc.),
 the Gaussian 86(TM) system (copyright 1986, Carnegie Mellon
 University), and the Gaussian 82(TM) system (copyright 1983,
 Carnegie Mellon University). Gaussian is a federally registered
 trademark of Gaussian, Inc.
  
 This software contains proprietary and confidential information,
 including trade secrets, belonging to Gaussian, Inc.
  
 This software is provided under written license and may be
 used, copied, transmitted, or stored only in accord with that
 written license.
  
 The following legend is applicable only to US Government
 contracts under FAR:
  
                    RESTRICTED RIGHTS LEGEND
  
 Use, reproduction and disclosure by the US Government is
 subject to restrictions as set forth in subparagraphs (a)
 and (c) of the Commercial Computer Software - Restricted
 Rights clause in FAR 52.227-19.
  
 Gaussian, Inc.
 340 Quinnipiac St., Bldg. 40, Wallingford CT 06492
  
  
 ---------------------------------------------------------------
 Warning -- This program may not be used in any manner that
 competes with the business of Gaussian, Inc. or will provide
 assistance to any competitor of Gaussian, Inc.  The licensee
 of this program is prohibited from giving any competitor of
 Gaussian, Inc. access to this program.  By using this program,
 the user acknowledges that Gaussian, Inc. is engaged in the
 business of creating and licensing software in the field of
 computational chemistry and represents and warrants to the
 licensee that it is not a competitor of Gaussian, Inc. and that
 it will not use this program in any manner prohibited above.
 ---------------------------------------------------------------
  

 Cite this work as:
 Gaussian 16, Revision A.03,
 M. J. Frisch, G. W. Trucks, H. B. Schlegel, G. E. Scuseria, 
 M. A. Robb, J. R. Cheeseman, G. Scalmani, V. Barone, 
 G. A. Petersson, H. Nakatsuji, X. Li, M. Caricato, A. V. Marenich, 
 J. Bloino, B. G. Janesko, R. Gomperts, B. Mennucci, H. P. Hratchian, 
 J. V. Ortiz, A. F. Izmaylov, J. L. Sonnenberg, D. Williams-Young, 
 F. Ding, F. Lipparini, F. Egidi, J. Goings, B. Peng, A. Petrone, 
 T. Henderson, D. Ranasinghe, V. G. Zakrzewski, J. Gao, N. Rega, 
 G. Zheng, W. Liang, M. Hada, M. Ehara, K. Toyota, R. Fukuda, 
 J. Hasegawa, M. Ishida, T. Nakajima, Y. Honda, O. Kitao, H. Nakai, 
 T. Vreven, K. Throssell, J. A. Montgomery, Jr., J. E. Peralta, 
 F. Ogliaro, M. J. Bearpark, J. J. Heyd, E. N. Brothers, K. N. Kudin, 
 V. N. Staroverov, T. A. Keith, R. Kobayashi, J. Normand, 
 K. Raghavachari, A. P. Rendell, J. C. Burant, S. S. Iyengar, 
 J. Tomasi, M. Cossi, J. M. Millam, M. Klene, C. Adamo, R. Cammi, 
 J. W. Ochterski, R. L. Martin, K. Morokuma, O. Farkas, 
 J. B. Foresman, and D. J. Fox, Gaussian, Inc., Wallingford CT, 2016.
 
 ******************************************
 Gaussian 16:  ES64L-G16RevA.03 25-Dec-2016
                20-Jun-2020 
 ******************************************
 %nprocshared=4
 Will use up to    4 processors via shared memory.
 %mem=30GB
 %chk=phenanthrene_opt.chk
 ----------------------
 # opt freq b3lyp/6-31G
 ----------------------
 1/18=20,19=15,26=3,38=1/1,3;
 2/9=110,12=2,17=6,18=5,40=1/2;
 3/5=1,6=6,11=2,25=1,30=1,71=1,74=-5/1,2,3;
 4//1;
 5/5=2,38=5/2;
 6/7=2,8=2,9=2,10=2,28=1/1;
 7//1,2,3,16;
 1/18=20,19=15,26=3/3(2);
 2/9=110/2;
 99//99;
 2/9=110/2;
 3/5=1,6=6,11=2,25=1,30=1,71=1,74=-5/1,2,3;
 4/5=5,16=3,69=1/1;
 5/5=2,38=5/2;
 7//1,2,3,16;
 1/18=20,19=15,26=3/3(-5);
 2/9=110/2;
 6/7=2,8=2,9=2,10=2,19=2,28=1/1;
 99/9=1/99;
 -----
 6-31G
 -----
 Symbolic Z-matrix:
 Charge =  0 Multiplicity = 1
 C                    -3.18015  -5.83155  -0.00346 
 C                    -1.80026  -5.83155  -0.00346 
 C                    -1.08092  -4.6149   -0.00346 
 C                    -1.77851  -3.38301  -0.00139 
 C                    -3.19249  -3.41287  -0.00098 
 C                    -3.87896  -4.61144  -0.00247 
 C                     0.35413  -4.62339  -0.00514 
 C                    -1.02908  -2.14632   0.00008 
 C                     0.38577  -2.19459  -0.00174 
 C                     1.05746  -3.46277  -0.00483 
 C                     1.1315   -0.99388   0. 
 H                     2.23053  -1.05054  -0.00142 
 C                     0.49288   0.2293    0.00368 
 C                    -0.91213   0.28411   0.0056 
 C                    -1.65699  -0.87902   0.00369 
 H                     0.86372  -5.59915  -0.00697 
 H                    -3.73937  -6.77846  -0.00432 
 H                    -1.24124  -6.77949  -0.00417 
 H                    -3.76188  -2.4719    0.00032 
 H                    -4.97905  -4.61836  -0.00275 
 H                     2.15828  -3.46325  -0.00646 
 H                     1.07349   1.16326   0.00515 
 H                    -1.41485   1.26263   0.00858 
 H                    -2.75465  -0.80992   0.00532 
 

 GradGradGradGradGradGradGradGradGradGradGradGradGradGradGradGradGradGrad
 Berny optimization.
 Initialization pass.
                           ----------------------------
                           !    Initial Parameters    !
                           ! (Angstroms and Degrees)  !
 --------------------------                            --------------------------
 ! Name  Definition              Value          Derivative Info.                !
 --------------------------------------------------------------------------------
 ! R1    R(1,2)                  1.3799         estimate D2E/DX2                !
 ! R2    R(1,6)                  1.4061         estimate D2E/DX2                !
 ! R3    R(1,17)                 1.0997         estimate D2E/DX2                !
 ! R4    R(2,3)                  1.4134         estimate D2E/DX2                !
 ! R5    R(2,18)                 1.1005         estimate D2E/DX2                !
 ! R6    R(3,4)                  1.4157         estimate D2E/DX2                !
 ! R7    R(3,7)                  1.4351         estimate D2E/DX2                !
 ! R8    R(4,5)                  1.4143         estimate D2E/DX2                !
 ! R9    R(4,8)                  1.446          estimate D2E/DX2                !
 ! R10   R(5,6)                  1.3812         estimate D2E/DX2                !
 ! R11   R(5,19)                 1.0998         estimate D2E/DX2                !
 ! R12   R(6,20)                 1.1001         estimate D2E/DX2                !
 ! R13   R(7,10)                 1.3571         estimate D2E/DX2                !
 ! R14   R(7,16)                 1.1008         estimate D2E/DX2                !
 ! R15   R(8,9)                  1.4157         estimate D2E/DX2                !
 ! R16   R(8,15)                 1.4143         estimate D2E/DX2                !
 ! R17   R(9,10)                 1.4351         estimate D2E/DX2                !
 ! R18   R(9,11)                 1.4134         estimate D2E/DX2                !
 ! R19   R(10,21)                1.1008         estimate D2E/DX2                !
 ! R20   R(11,12)                1.1005         estimate D2E/DX2                !
 ! R21   R(11,13)                1.3799         estimate D2E/DX2                !
 ! R22   R(13,14)                1.4061         estimate D2E/DX2                !
 ! R23   R(13,22)                1.0997         estimate D2E/DX2                !
 ! R24   R(14,15)                1.3812         estimate D2E/DX2                !
 ! R25   R(14,23)                1.1001         estimate D2E/DX2                !
 ! R26   R(15,24)                1.0998         estimate D2E/DX2                !
 ! A1    A(2,1,6)              119.8017         estimate D2E/DX2                !
 ! A2    A(2,1,17)             120.5649         estimate D2E/DX2                !
 ! A3    A(6,1,17)             119.6335         estimate D2E/DX2                !
 ! A4    A(1,2,3)              120.5935         estimate D2E/DX2                !
 ! A5    A(1,2,18)             120.5287         estimate D2E/DX2                !
 ! A6    A(3,2,18)             118.8778         estimate D2E/DX2                !
 ! A7    A(2,3,4)              119.8847         estimate D2E/DX2                !
 ! A8    A(2,3,7)              120.2548         estimate D2E/DX2                !
 ! A9    A(4,3,7)              119.8604         estimate D2E/DX2                !
 ! A10   A(3,4,5)              118.3118         estimate D2E/DX2                !
 ! A11   A(3,4,8)              119.2625         estimate D2E/DX2                !
 ! A12   A(5,4,8)              122.4257         estimate D2E/DX2                !
 ! A13   A(4,5,6)              121.0112         estimate D2E/DX2                !
 ! A14   A(4,5,19)             119.9681         estimate D2E/DX2                !
 ! A15   A(6,5,19)             119.0207         estimate D2E/DX2                !
 ! A16   A(1,6,5)              120.3971         estimate D2E/DX2                !
 ! A17   A(1,6,20)             119.4411         estimate D2E/DX2                !
 ! A18   A(5,6,20)             120.1618         estimate D2E/DX2                !
 ! A19   A(3,7,10)             120.877          estimate D2E/DX2                !
 ! A20   A(3,7,16)             117.9141         estimate D2E/DX2                !
 ! A21   A(10,7,16)            121.2089         estimate D2E/DX2                !
 ! A22   A(4,8,9)              119.2615         estimate D2E/DX2                !
 ! A23   A(4,8,15)             122.4269         estimate D2E/DX2                !
 ! A24   A(9,8,15)             118.3116         estimate D2E/DX2                !
 ! A25   A(8,9,10)             119.8622         estimate D2E/DX2                !
 ! A26   A(8,9,11)             119.8889         estimate D2E/DX2                !
 ! A27   A(10,9,11)            120.2488         estimate D2E/DX2                !
 ! A28   A(7,10,9)             120.8763         estimate D2E/DX2                !
 ! A29   A(7,10,21)            121.1906         estimate D2E/DX2                !
 ! A30   A(9,10,21)            117.933          estimate D2E/DX2                !
 ! A31   A(9,11,12)            118.8921         estimate D2E/DX2                !
 ! A32   A(9,11,13)            120.5879         estimate D2E/DX2                !
 ! A33   A(12,11,13)           120.52           estimate D2E/DX2                !
 ! A34   A(11,13,14)           119.8028         estimate D2E/DX2                !
 ! A35   A(11,13,22)           120.5637         estimate D2E/DX2                !
 ! A36   A(14,13,22)           119.6336         estimate D2E/DX2                !
 ! A37   A(13,14,15)           120.4014         estimate D2E/DX2                !
 ! A38   A(13,14,23)           119.4262         estimate D2E/DX2                !
 ! A39   A(15,14,23)           120.1724         estimate D2E/DX2                !
 ! A40   A(8,15,14)            121.0074         estimate D2E/DX2                !
 ! A41   A(8,15,24)            119.9598         estimate D2E/DX2                !
 ! A42   A(14,15,24)           119.0328         estimate D2E/DX2                !
 ! D1    D(6,1,2,3)             -0.0466         estimate D2E/DX2                !
 ! D2    D(6,1,2,18)           179.9961         estimate D2E/DX2                !
 ! D3    D(17,1,2,3)           179.9483         estimate D2E/DX2                !
 ! D4    D(17,1,2,18)           -0.009          estimate D2E/DX2                !
 ! D5    D(2,1,6,5)             -0.0246         estimate D2E/DX2                !
 ! D6    D(2,1,6,20)           179.9838         estimate D2E/DX2                !
 ! D7    D(17,1,6,5)           179.9804         estimate D2E/DX2                !
 ! D8    D(17,1,6,20)           -0.0112         estimate D2E/DX2                !
 ! D9    D(1,2,3,4)              0.0966         estimate D2E/DX2                !
 ! D10   D(1,2,3,7)           -179.9223         estimate D2E/DX2                !
 ! D11   D(18,2,3,4)          -179.9454         estimate D2E/DX2                !
 ! D12   D(18,2,3,7)             0.0357         estimate D2E/DX2                !
 ! D13   D(2,3,4,5)             -0.0745         estimate D2E/DX2                !
 ! D14   D(2,3,4,8)            179.932          estimate D2E/DX2                !
 ! D15   D(7,3,4,5)            179.9444         estimate D2E/DX2                !
 ! D16   D(7,3,4,8)             -0.0491         estimate D2E/DX2                !
 ! D17   D(2,3,7,10)          -179.9837         estimate D2E/DX2                !
 ! D18   D(2,3,7,16)             0.0328         estimate D2E/DX2                !
 ! D19   D(4,3,7,10)            -0.0026         estimate D2E/DX2                !
 ! D20   D(4,3,7,16)          -179.9861         estimate D2E/DX2                !
 ! D21   D(3,4,5,6)              0.0043         estimate D2E/DX2                !
 ! D22   D(3,4,5,19)          -179.9826         estimate D2E/DX2                !
 ! D23   D(8,4,5,6)            179.9976         estimate D2E/DX2                !
 ! D24   D(8,4,5,19)             0.0107         estimate D2E/DX2                !
 ! D25   D(3,4,8,9)              0.0536         estimate D2E/DX2                !
 ! D26   D(3,4,8,15)          -179.9273         estimate D2E/DX2                !
 ! D27   D(5,4,8,9)           -179.9397         estimate D2E/DX2                !
 ! D28   D(5,4,8,15)             0.0794         estimate D2E/DX2                !
 ! D29   D(4,5,6,1)              0.0457         estimate D2E/DX2                !
 ! D30   D(4,5,6,20)          -179.9627         estimate D2E/DX2                !
 ! D31   D(19,5,6,1)          -179.9672         estimate D2E/DX2                !
 ! D32   D(19,5,6,20)            0.0243         estimate D2E/DX2                !
 ! D33   D(3,7,10,9)             0.0499         estimate D2E/DX2                !
 ! D34   D(3,7,10,21)         -179.9789         estimate D2E/DX2                !
 ! D35   D(16,7,10,9)         -179.9671         estimate D2E/DX2                !
 ! D36   D(16,7,10,21)           0.004          estimate D2E/DX2                !
 ! D37   D(4,8,9,10)            -0.0079         estimate D2E/DX2                !
 ! D38   D(4,8,9,11)          -179.9845         estimate D2E/DX2                !
 ! D39   D(15,8,9,10)          179.9738         estimate D2E/DX2                !
 ! D40   D(15,8,9,11)           -0.0028         estimate D2E/DX2                !
 ! D41   D(4,8,15,14)          179.9713         estimate D2E/DX2                !
 ! D42   D(4,8,15,24)           -0.0095         estimate D2E/DX2                !
 ! D43   D(9,8,15,14)           -0.0098         estimate D2E/DX2                !
 ! D44   D(9,8,15,24)         -179.9906         estimate D2E/DX2                !
 ! D45   D(8,9,10,7)            -0.0445         estimate D2E/DX2                !
 ! D46   D(8,9,10,21)          179.9834         estimate D2E/DX2                !
 ! D47   D(11,9,10,7)          179.932          estimate D2E/DX2                !
 ! D48   D(11,9,10,21)          -0.04           estimate D2E/DX2                !
 ! D49   D(8,9,11,12)          179.9979         estimate D2E/DX2                !
 ! D50   D(8,9,11,13)            0.0106         estimate D2E/DX2                !
 ! D51   D(10,9,11,12)           0.0213         estimate D2E/DX2                !
 ! D52   D(10,9,11,13)        -179.9659         estimate D2E/DX2                !
 ! D53   D(9,11,13,14)          -0.0058         estimate D2E/DX2                !
 ! D54   D(9,11,13,22)         179.9929         estimate D2E/DX2                !
 ! D55   D(12,11,13,14)       -179.9929         estimate D2E/DX2                !
 ! D56   D(12,11,13,22)          0.0059         estimate D2E/DX2                !
 ! D57   D(11,13,14,15)         -0.0069         estimate D2E/DX2                !
 ! D58   D(11,13,14,23)        179.9972         estimate D2E/DX2                !
 ! D59   D(22,13,14,15)        179.9943         estimate D2E/DX2                !
 ! D60   D(22,13,14,23)         -0.0016         estimate D2E/DX2                !
 ! D61   D(13,14,15,8)           0.0148         estimate D2E/DX2                !
 ! D62   D(13,14,15,24)        179.9958         estimate D2E/DX2                !
 ! D63   D(23,14,15,8)        -179.9893         estimate D2E/DX2                !
 ! D64   D(23,14,15,24)         -0.0083         estimate D2E/DX2                !
 --------------------------------------------------------------------------------
 Trust Radius=3.00D-01 FncErr=1.00D-07 GrdErr=1.00D-06 EigMax=2.50D+02 EigMin=1.00D-04
 Number of steps in this run=    142 maximum allowed number of steps=    144.
 GradGradGradGradGradGradGradGradGradGradGradGradGradGradGradGradGradGrad

                          Input orientation:                          
 ---------------------------------------------------------------------
 Center     Atomic      Atomic             Coordinates (Angstroms)
 Number     Number       Type             X           Y           Z
 ---------------------------------------------------------------------
      1          6           0       -3.180148   -5.831547   -0.003461
      2          6           0       -1.800257   -5.831547   -0.003461
      3          6           0       -1.080921   -4.614903   -0.003461
      4          6           0       -1.778510   -3.383007   -0.001391
      5          6           0       -3.192495   -3.412871   -0.000982
      6          6           0       -3.878957   -4.611440   -0.002469
      7          6           0        0.354131   -4.623386   -0.005141
      8          6           0       -1.029078   -2.146320    0.000080
      9          6           0        0.385769   -2.194595   -0.001737
     10          6           0        1.057459   -3.462771   -0.004829
     11          6           0        1.131498   -0.993884    0.000000
     12          1           0        2.230533   -1.050540   -0.001418
     13          6           0        0.492880    0.229299    0.003681
     14          6           0       -0.912128    0.284105    0.005603
     15          6           0       -1.656993   -0.879022    0.003686
     16          1           0        0.863717   -5.599155   -0.006966
     17          1           0       -3.739369   -6.778462   -0.004315
     18          1           0       -1.241238   -6.779488   -0.004167
     19          1           0       -3.761877   -2.471897    0.000322
     20          1           0       -4.979052   -4.618363   -0.002746
     21          1           0        2.158276   -3.463251   -0.006458
     22          1           0        1.073488    1.163262    0.005148
     23          1           0       -1.414853    1.262629    0.008584
     24          1           0       -2.754652   -0.809917    0.005323
 ---------------------------------------------------------------------
                    Distance matrix (angstroms):
                    1          2          3          4          5
     1  C    0.000000
     2  C    1.379891   0.000000
     3  C    2.426309   1.413388   0.000000
     4  C    2.821337   2.448637   1.415699   0.000000
     5  C    2.418709   2.790757   2.429739   1.414300   0.000000
     6  C    1.406057   2.410323   2.798038   2.433295   1.381231
     7  C    3.735075   2.470029   1.435078   2.467126   3.747522
     8  C    4.267085   3.765053   2.469130   1.446045   2.506896
     9  C    5.093445   4.243363   2.830031   2.469094   3.779970
    10  C    4.854731   3.711825   2.429008   2.837093   4.250249
    11  C    6.480223   5.656694   4.243417   3.765111   4.954636
    12  H    7.220353   6.253423   4.865225   4.638192   5.915221
    13  C    7.086963   6.480153   5.093446   4.267082   5.181449
    14  C    6.522668   6.179810   4.901923   3.768073   4.343702
    15  C    5.181463   4.954602   3.780042   2.506937   2.962799
    16  H    4.050539   2.674093   2.179537   3.448580   4.607899
    17  H    1.099717   2.157963   3.427584   3.920981   3.409734
    18  H    2.158232   1.100498   2.170514   3.438714   3.891211
    19  H    3.409644   3.890400   3.432203   2.182629   1.099832
    20  H    2.169763   3.402433   3.898133   3.430681   2.155226
    21  H    5.840172   4.612897   3.437835   3.937607   5.351011
    22  H    8.186626   7.562132   6.166745   5.366796   6.256168
    23  H    7.310523   7.104647   5.887023   4.659858   5.002040
    24  H    5.039632   5.111528   4.156846   2.752034   2.639529
                    6          7          8          9         10
     6  C    0.000000
     7  C    4.233106   0.000000
     8  C    3.768107   2.837102   0.000000
     9  C    4.901941   2.428999   1.415672   0.000000
    10  C    5.068298   1.357092   2.467125   1.435077   0.000000
    11  C    6.179917   3.711820   2.448713   1.413443   2.470002
    12  H    7.071483   4.035607   3.438866   2.170718   2.682345
    13  C    6.522710   4.854676   2.821336   2.426265   3.734997
    14  C    5.724378   5.068234   2.433243   2.797954   4.233020
    15  C    4.343743   4.250289   1.414332   2.429740   3.747543
    16  H    4.844436   1.100821   3.937612   3.437949   2.145152
    17  H    2.171514   4.626132   5.366790   6.166734   5.831241
    18  H    3.414381   2.682159   4.638025   4.865018   4.035421
    19  H    2.142746   4.644401   2.752125   4.156906   4.920148
    20  H    1.100117   5.333186   4.659753   5.886931   6.146126
    21  H    6.145448   2.144960   3.448706   2.179746   1.100818
    22  H    7.607493   5.831198   3.920987   3.427566   4.626072
    23  H    6.369978   6.146110   3.430718   3.898044   5.333096
    24  H    3.964303   4.920080   2.182569   3.432146   4.644344
                   11         12         13         14         15
    11  C    0.000000
    12  H    1.100495   0.000000
    13  C    1.379863   2.158113   0.000000
    14  C    2.410331   3.414329   1.406078   0.000000
    15  C    2.790858   3.891311   2.418745   1.381192   0.000000
    16  H    4.613055   4.749538   5.840249   6.145448   5.351051
    17  H    7.562189   8.273381   8.186618   7.607447   6.256177
    18  H    6.253248   6.698809   7.220133   7.071263   5.915100
    19  H    5.111716   6.158672   5.039785   3.964422   2.639659
    20  H    7.104624   8.044096   7.310397   6.369783   5.001878
    21  H    2.674339   2.413798   4.050750   4.844606   4.608104
    22  H    2.157932   2.497942   1.099725   2.171540   3.409758
    23  H    3.402327   4.317371   2.169618   1.100114   2.155302
    24  H    3.890506   4.990993   3.409756   2.142844   1.099833
                   16         17         18         19         20
    16  H    0.000000
    17  H    4.751755   0.000000
    18  H    2.413303   2.498131   0.000000
    19  H    5.583540   4.306626   4.990890   0.000000
    20  H    5.924519   2.490551   4.317605   2.467558   0.000000
    21  H    2.497593   6.765563   4.749119   6.002586   7.230197
    22  H    6.765681   9.286262   8.273169   6.049393   8.370214
    23  H    7.230228   8.370346   8.044001   4.410813   6.876751
    24  H    6.002462   6.049239   6.158432   1.943375   4.410474
                   21         22         23         24
    21  H    0.000000
    22  H    4.752002   0.000000
    23  H    5.924645   2.490327   0.000000
    24  H    5.583653   4.306750   2.467898   0.000000
 Stoichiometry    C14H10
 Framework group  C1[X(C14H10)]
 Deg. of freedom    66
 Full point group                 C1      NOp   1
 Largest Abelian subgroup         C1      NOp   1
 Largest concise Abelian subgroup C1      NOp   1
                         Standard orientation:                         
 ---------------------------------------------------------------------
 Center     Atomic      Atomic             Coordinates (Angstroms)
 Number     Number       Type             X           Y           Z
 ---------------------------------------------------------------------
      1          6           0        3.543491   -0.301146    0.000604
      2          6           0        2.828319    0.878950    0.001839
      3          6           0        1.415015    0.863571    0.000374
      4          6           0        0.723031   -0.371483   -0.000315
      5          6           0        1.481413   -1.565260   -0.001120
      6          6           0        2.862222   -1.531132   -0.001144
      7          6           0        0.678510    2.095241   -0.000007
      8          6           0       -0.723014   -0.371514   -0.000317
      9          6           0       -1.415016    0.863500   -0.000784
     10          6           0       -0.678581    2.095210   -0.001078
     11          6           0       -2.828375    0.878947   -0.000461
     12          1           0       -3.349530    1.848219   -0.000798
     13          6           0       -3.543472   -0.301162    0.000529
     14          6           0       -2.862155   -1.531146    0.001098
     15          6           0       -1.481386   -1.565334    0.000531
     16          1           0        1.248890    3.036768    0.000315
     17          1           0        4.643136   -0.288629    0.000891
     18          1           0        3.349278    1.848328    0.003276
     19          1           0        0.971782   -2.539890   -0.001956
     20          1           0        3.438302   -2.468356   -0.002393
     21          1           0       -1.248702    3.036891   -0.001721
     22          1           0       -4.643126   -0.288677    0.000896
     23          1           0       -3.438448   -2.468235    0.001934
     24          1           0       -0.971591   -2.539881    0.001066
 ---------------------------------------------------------------------
 Rotational constants (GHZ):           1.6131996           0.5558416           0.4134009
 Standard basis: 6-31G (6D, 7F)
 There are   146 symmetry adapted cartesian basis functions of A   symmetry.
 There are   146 symmetry adapted basis functions of A   symmetry.
   146 basis functions,   348 primitive gaussians,   146 cartesian basis functions
    47 alpha electrons       47 beta electrons
       nuclear repulsion energy       775.9882839826 Hartrees.
 NAtoms=   24 NActive=   24 NUniq=   24 SFac= 1.00D+00 NAtFMM=   60 NAOKFM=F Big=F
 Integral buffers will be    131072 words long.
 Raffenetti 2 integral format.
 Two-electron integral symmetry is turned on.
 One-electron integrals computed using PRISM.
 NBasis=   146 RedAO= T EigKep=  2.71D-04  NBF=   146
 NBsUse=   146 1.00D-06 EigRej= -1.00D+00 NBFU=   146
 ExpMin= 1.61D-01 ExpMax= 3.05D+03 ExpMxC= 4.57D+02 IAcc=3 IRadAn=         5 AccDes= 0.00D+00
 Harris functional with IExCor=  402 and IRadAn=       5 diagonalized for initial guess.
 HarFok:  IExCor=  402 AccDes= 0.00D+00 IRadAn=         5 IDoV= 1 UseB2=F ITyADJ=14
 ICtDFT=  3500011 ScaDFX=  1.000000  1.000000  1.000000  1.000000
 FoFCou: FMM=F IPFlag=           0 FMFlag=      100000 FMFlg1=           0
         NFxFlg=           0 DoJE=T BraDBF=F KetDBF=T FulRan=T
         wScrn=  0.000000 ICntrl=       500 IOpCl=  0 I1Cent=   200000004 NGrid=           0
         NMat0=    1 NMatS0=      1 NMatT0=    0 NMatD0=    1 NMtDS0=    0 NMtDT0=    0
 Petite list used in FoFCou.
 Keep R1 ints in memory in canonical form, NReq=61469874.
 Requested convergence on RMS density matrix=1.00D-08 within 128 cycles.
 Requested convergence on MAX density matrix=1.00D-06.
 Requested convergence on             energy=1.00D-06.
 No special actions if energy rises.
 Integral accuracy reduced to 1.0D-05 until final iterations.
 Initial convergence to 1.0D-05 achieved.  Increase integral accuracy.
 SCF Done:  E(RB3LYP) =  -539.416498253     A.U. after   13 cycles
            NFock= 13  Conv=0.95D-08     -V/T= 2.0055

 **********************************************************************

            Population analysis using the SCF density.

 **********************************************************************

 Orbital symmetries:
       Occupied  (A) (A) (A) (A) (A) (A) (A) (A) (A) (A) (A) (A)
                 (A) (A) (A) (A) (A) (A) (A) (A) (A) (A) (A) (A)
                 (A) (A) (A) (A) (A) (A) (A) (A) (A) (A) (A) (A)
                 (A) (A) (A) (A) (A) (A) (A) (A) (A) (A) (A)
       Virtual   (A) (A) (A) (A) (A) (A) (A) (A) (A) (A) (A) (A)
                 (A) (A) (A) (A) (A) (A) (A) (A) (A) (A) (A) (A)
                 (A) (A) (A) (A) (A) (A) (A) (A) (A) (A) (A) (A)
                 (A) (A) (A) (A) (A) (A) (A) (A) (A) (A) (A) (A)
                 (A) (A) (A) (A) (A) (A) (A) (A) (A) (A) (A) (A)
                 (A) (A) (A) (A) (A) (A) (A) (A) (A) (A) (A) (A)
                 (A) (A) (A) (A) (A) (A) (A) (A) (A) (A) (A) (A)
                 (A) (A) (A) (A) (A) (A) (A) (A) (A) (A) (A) (A)
                 (A) (A) (A)
 The electronic state is 1-A.
 Alpha  occ. eigenvalues --  -10.19644 -10.19616 -10.19450 -10.19449 -10.18830
 Alpha  occ. eigenvalues --  -10.18829 -10.18814 -10.18790 -10.18790 -10.18768
 Alpha  occ. eigenvalues --  -10.18768 -10.18750 -10.18735 -10.18735  -0.88754
 Alpha  occ. eigenvalues --   -0.85254  -0.81167  -0.77896  -0.75771  -0.72576
 Alpha  occ. eigenvalues --   -0.72008  -0.63400  -0.62574  -0.61245  -0.58395
 Alpha  occ. eigenvalues --   -0.53094  -0.53037  -0.49732  -0.47838  -0.47563
 Alpha  occ. eigenvalues --   -0.43795  -0.43388  -0.42788  -0.42289  -0.41161
 Alpha  occ. eigenvalues --   -0.40317  -0.39174  -0.36242  -0.36048  -0.35968
 Alpha  occ. eigenvalues --   -0.33355  -0.32355  -0.31473  -0.28481  -0.26259
 Alpha  occ. eigenvalues --   -0.22397  -0.21329
 Alpha virt. eigenvalues --   -0.03474  -0.02856   0.01099   0.03970   0.08390
 Alpha virt. eigenvalues --    0.08915   0.10102   0.10356   0.14399   0.14448
 Alpha virt. eigenvalues --    0.14845   0.16045   0.16847   0.18134   0.19365
 Alpha virt. eigenvalues --    0.22723   0.24205   0.24487   0.26679   0.28694
 Alpha virt. eigenvalues --    0.30191   0.30922   0.31973   0.33325   0.34013
 Alpha virt. eigenvalues --    0.38765   0.40139   0.47681   0.49104   0.50226
 Alpha virt. eigenvalues --    0.50462   0.51633   0.53101   0.54879   0.55179
 Alpha virt. eigenvalues --    0.57689   0.58402   0.58495   0.59166   0.59313
 Alpha virt. eigenvalues --    0.59438   0.60686   0.60956   0.62441   0.63133
 Alpha virt. eigenvalues --    0.63960   0.63970   0.65214   0.65515   0.65623
 Alpha virt. eigenvalues --    0.66075   0.66335   0.66366   0.68997   0.69053
 Alpha virt. eigenvalues --    0.70014   0.74246   0.75964   0.80075   0.82543
 Alpha virt. eigenvalues --    0.83028   0.84539   0.84689   0.85752   0.86653
 Alpha virt. eigenvalues --    0.89141   0.90281   0.90463   0.92838   0.93510
 Alpha virt. eigenvalues --    0.95768   0.98260   0.98825   0.99651   1.03276
 Alpha virt. eigenvalues --    1.04984   1.06570   1.09551   1.10744   1.12360
 Alpha virt. eigenvalues --    1.14712   1.16585   1.19759   1.22490   1.23707
 Alpha virt. eigenvalues --    1.25276   1.27946   1.29963   1.35538   1.46848
 Alpha virt. eigenvalues --    1.48507   1.51355   1.52548   1.53186   1.55963
 Alpha virt. eigenvalues --    1.65847   1.92224   1.95108   1.98331
          Condensed to atoms (all electrons):
               1          2          3          4          5          6
     1  C    4.931946   0.508183  -0.036088  -0.031920  -0.049080   0.509061
     2  C    0.508183   5.060206   0.453614  -0.035533  -0.055131  -0.046034
     3  C   -0.036088   0.453614   4.894719   0.449772  -0.074641  -0.028654
     4  C   -0.031920  -0.035533   0.449772   5.057177   0.464687  -0.024983
     5  C   -0.049080  -0.055131  -0.074641   0.464687   5.078201   0.505217
     6  C    0.509061  -0.046034  -0.028654  -0.024983   0.505217   4.933459
     7  C    0.007227  -0.050921   0.414835  -0.036467   0.011203  -0.000025
     8  C   -0.000034   0.012681  -0.019419   0.277834  -0.061019   0.008764
     9  C    0.000021   0.000219  -0.032296  -0.019415   0.009785  -0.000313
    10  C   -0.000458   0.008155  -0.027032  -0.050786  -0.000538   0.000056
    11  C    0.000000  -0.000015   0.000220   0.012677  -0.000181   0.000000
    12  H    0.000000   0.000000   0.000030  -0.000257   0.000002   0.000000
    13  C    0.000000   0.000000   0.000021  -0.000034  -0.000013   0.000000
    14  C    0.000000   0.000000  -0.000313   0.008767   0.000709  -0.000013
    15  C   -0.000013  -0.000181   0.009781  -0.061014  -0.016310   0.000709
    16  H    0.000288  -0.003890  -0.036957   0.003129  -0.000271   0.000028
    17  H    0.348531  -0.028495   0.003270   0.000917   0.004267  -0.033808
    18  H   -0.034388   0.347346  -0.037311   0.003288   0.000808   0.004013
    19  H    0.003903   0.000784   0.003800  -0.029620   0.340705  -0.034590
    20  H   -0.034179   0.004168   0.001058   0.003061  -0.028005   0.348556
    21  H    0.000003  -0.000226   0.002357   0.001387   0.000016   0.000000
    22  H    0.000000   0.000000   0.000000   0.000006   0.000000   0.000000
    23  H    0.000000   0.000000   0.000002  -0.000250   0.000016   0.000000
    24  H   -0.000004   0.000004  -0.000007  -0.010218   0.002903   0.000230
               7          8          9         10         11         12
     1  C    0.007227  -0.000034   0.000021  -0.000458   0.000000   0.000000
     2  C   -0.050921   0.012681   0.000219   0.008155  -0.000015   0.000000
     3  C    0.414835  -0.019419  -0.032296  -0.027032   0.000220   0.000030
     4  C   -0.036467   0.277834  -0.019415  -0.050786   0.012677  -0.000257
     5  C    0.011203  -0.061019   0.009785  -0.000538  -0.000181   0.000002
     6  C   -0.000025   0.008764  -0.000313   0.000056   0.000000   0.000000
     7  C    5.089496  -0.050782  -0.027026   0.477208   0.008153   0.000379
     8  C   -0.050782   5.057141   0.449755  -0.036466  -0.035524   0.003283
     9  C   -0.027026   0.449755   4.894847   0.414792   0.453603  -0.037299
    10  C    0.477208  -0.036466   0.414792   5.089543  -0.050919  -0.004035
    11  C    0.008153  -0.035524   0.453603  -0.050919   5.060128   0.347357
    12  H    0.000379   0.003283  -0.037299  -0.004035   0.347357   0.586837
    13  C   -0.000458  -0.031915  -0.036091   0.007228   0.508187  -0.034395
    14  C    0.000056  -0.024988  -0.028658  -0.000025  -0.046047   0.004014
    15  C   -0.000538   0.464709  -0.074641   0.011201  -0.055119   0.000808
    16  H    0.342386   0.001387   0.002355  -0.026712  -0.000226  -0.000011
    17  H   -0.000192   0.000006   0.000000   0.000003   0.000000   0.000000
    18  H   -0.004042  -0.000257   0.000030   0.000379   0.000000   0.000000
    19  H   -0.000220  -0.010210  -0.000007   0.000017   0.000004   0.000000
    20  H    0.000004  -0.000250   0.000002   0.000000   0.000000   0.000000
    21  H   -0.026721   0.003124  -0.036942   0.342399  -0.003885   0.006048
    22  H    0.000003   0.000917   0.003271  -0.000192  -0.028496  -0.003881
    23  H    0.000000   0.003060   0.001058   0.000004   0.004171  -0.000178
    24  H    0.000017  -0.029618   0.003803  -0.000220   0.000784   0.000016
              13         14         15         16         17         18
     1  C    0.000000   0.000000  -0.000013   0.000288   0.348531  -0.034388
     2  C    0.000000   0.000000  -0.000181  -0.003890  -0.028495   0.347346
     3  C    0.000021  -0.000313   0.009781  -0.036957   0.003270  -0.037311
     4  C   -0.000034   0.008767  -0.061014   0.003129   0.000917   0.003288
     5  C   -0.000013   0.000709  -0.016310  -0.000271   0.004267   0.000808
     6  C    0.000000  -0.000013   0.000709   0.000028  -0.033808   0.004013
     7  C   -0.000458   0.000056  -0.000538   0.342386  -0.000192  -0.004042
     8  C   -0.031915  -0.024988   0.464709   0.001387   0.000006  -0.000257
     9  C   -0.036091  -0.028658  -0.074641   0.002355   0.000000   0.000030
    10  C    0.007228  -0.000025   0.011201  -0.026712   0.000003   0.000379
    11  C    0.508187  -0.046047  -0.055119  -0.000226   0.000000   0.000000
    12  H   -0.034395   0.004014   0.000808  -0.000011   0.000000   0.000000
    13  C    4.931985   0.509047  -0.049076   0.000003   0.000000   0.000000
    14  C    0.509047   4.933475   0.505243   0.000000   0.000000   0.000000
    15  C   -0.049076   0.505243   5.078082   0.000016   0.000000   0.000002
    16  H    0.000003   0.000000   0.000016   0.584708  -0.000010   0.006056
    17  H    0.000000   0.000000   0.000000  -0.000010   0.587125  -0.003881
    18  H    0.000000   0.000000   0.000002   0.006056  -0.003881   0.586866
    19  H   -0.000004   0.000230   0.002896   0.000001  -0.000183   0.000016
    20  H    0.000000   0.000000   0.000016   0.000000  -0.003977  -0.000178
    21  H    0.000289   0.000028  -0.000270  -0.003207   0.000000  -0.000011
    22  H    0.348530  -0.033805   0.004266   0.000000   0.000000   0.000000
    23  H   -0.034191   0.348556  -0.028001   0.000000   0.000000   0.000000
    24  H    0.003902  -0.034585   0.340697   0.000000   0.000000   0.000000
              19         20         21         22         23         24
     1  C    0.003903  -0.034179   0.000003   0.000000   0.000000  -0.000004
     2  C    0.000784   0.004168  -0.000226   0.000000   0.000000   0.000004
     3  C    0.003800   0.001058   0.002357   0.000000   0.000002  -0.000007
     4  C   -0.029620   0.003061   0.001387   0.000006  -0.000250  -0.010218
     5  C    0.340705  -0.028005   0.000016   0.000000   0.000016   0.002903
     6  C   -0.034590   0.348556   0.000000   0.000000   0.000000   0.000230
     7  C   -0.000220   0.000004  -0.026721   0.000003   0.000000   0.000017
     8  C   -0.010210  -0.000250   0.003124   0.000917   0.003060  -0.029618
     9  C   -0.000007   0.000002  -0.036942   0.003271   0.001058   0.003803
    10  C    0.000017   0.000000   0.342399  -0.000192   0.000004  -0.000220
    11  C    0.000004   0.000000  -0.003885  -0.028496   0.004171   0.000784
    12  H    0.000000   0.000000   0.006048  -0.003881  -0.000178   0.000016
    13  C   -0.000004   0.000000   0.000289   0.348530  -0.034191   0.003902
    14  C    0.000230   0.000000   0.000028  -0.033805   0.348556  -0.034585
    15  C    0.002896   0.000016  -0.000270   0.004266  -0.028001   0.340697
    16  H    0.000001   0.000000  -0.003207   0.000000   0.000000   0.000000
    17  H   -0.000183  -0.003977   0.000000   0.000000   0.000000   0.000000
    18  H    0.000016  -0.000178  -0.000011   0.000000   0.000000   0.000000
    19  H    0.583638  -0.003687   0.000000   0.000000  -0.000002   0.007879
    20  H   -0.003687   0.587200   0.000000   0.000000   0.000000  -0.000002
    21  H    0.000000   0.000000   0.584687  -0.000010   0.000000   0.000001
    22  H    0.000000   0.000000  -0.000010   0.587131  -0.003979  -0.000183
    23  H   -0.000002   0.000000   0.000000  -0.003979   0.587214  -0.003685
    24  H    0.007879  -0.000002   0.000001  -0.000183  -0.003685   0.583633
 Mulliken charges:
               1
     1  C   -0.122999
     2  C   -0.174935
     3  C    0.059239
     4  C    0.017795
     5  C   -0.133330
     6  C   -0.141675
     7  C   -0.153577
     8  C    0.017819
     9  C    0.059145
    10  C   -0.153602
    11  C   -0.174873
    12  H    0.131282
    13  C   -0.123015
    14  C   -0.141693
    15  C   -0.133265
    16  H    0.130925
    17  H    0.126426
    18  H    0.131263
    19  H    0.134647
    20  H    0.126211
    21  H    0.130932
    22  H    0.126423
    23  H    0.126204
    24  H    0.134651
 Sum of Mulliken charges =   0.00000
 Mulliken charges with hydrogens summed into heavy atoms:
               1
     1  C    0.003427
     2  C   -0.043671
     3  C    0.059239
     4  C    0.017795
     5  C    0.001317
     6  C   -0.015463
     7  C   -0.022652
     8  C    0.017819
     9  C    0.059145
    10  C   -0.022670
    11  C   -0.043591
    13  C    0.003408
    14  C   -0.015489
    15  C    0.001386
 Electronic spatial extent (au):  <R**2>=           2608.8119
 Charge=              0.0000 electrons
 Dipole moment (field-independent basis, Debye):
    X=             -0.0001    Y=             -0.0366    Z=              0.0003  Tot=              0.0366
 Quadrupole moment (field-independent basis, Debye-Ang):
   XX=            -70.6929   YY=            -70.9235   ZZ=            -86.4972
   XY=             -0.0007   XZ=             -0.0006   YZ=              0.0020
 Traceless Quadrupole moment (field-independent basis, Debye-Ang):
   XX=              5.3449   YY=              5.1144   ZZ=            -10.4593
   XY=             -0.0007   XZ=             -0.0006   YZ=              0.0020
 Octapole moment (field-independent basis, Debye-Ang**2):
  XXX=             -0.0082  YYY=             -0.6501  ZZZ=             -0.0001  XYY=              0.0020
  XXY=             -0.3915  XXZ=              0.0181  XZZ=             -0.0001  YZZ=              0.0913
  YYZ=             -0.0041  XYZ=              0.0332
 Hexadecapole moment (field-independent basis, Debye-Ang**3):
 XXXX=          -2327.1737 YYYY=           -887.8286 ZZZZ=            -89.8532 XXXY=             -0.0063
 XXXZ=             -0.0235 YYYX=             -0.0106 YYYZ=              0.0064 ZZZX=             -0.0006
 ZZZY=              0.0019 XXYY=           -532.6240 XXZZ=           -489.1896 YYZZ=           -193.7789
 XXYZ=              0.0292 YYXZ=             -0.0157 ZZXY=              0.0000
 N-N= 7.759882839826D+02 E-N=-2.802630903654D+03  KE= 5.364836242501D+02
 Calling FoFJK, ICntrl=      2127 FMM=F ISym2X=0 I1Cent= 0 IOpClX= 0 NMat=1 NMatS=1 NMatT=0.
 ***** Axes restored to original set *****
 -------------------------------------------------------------------
 Center     Atomic                   Forces (Hartrees/Bohr)
 Number     Number              X              Y              Z
 -------------------------------------------------------------------
      1        6          -0.007356217   -0.013398625    0.000002370
      2        6           0.004383756   -0.010209829   -0.000094220
      3        6           0.005932885   -0.008704127    0.000069352
      4        6          -0.006992539    0.003100721   -0.000016045
      5        6          -0.007406310    0.010289892    0.000010309
      6        6          -0.014684231   -0.000268857    0.000010294
      7        6           0.004407735   -0.012790169   -0.000036048
      8        6          -0.005985945    0.004775015    0.000015591
      9        6           0.010544926   -0.001216556   -0.000011908
     10        6           0.013378696    0.001945808    0.000005968
     11        6           0.011045309    0.000829568   -0.000014591
     12        1          -0.009376733    0.000283775    0.000009164
     13        6           0.008459596    0.012726435    0.000014443
     14        6          -0.006528428    0.013193904    0.000021801
     15        6          -0.012548666    0.001752231    0.000028081
     16        1          -0.003806414    0.008867759    0.000014278
     17        1           0.005246708    0.007826832    0.000019465
     18        1          -0.004616489    0.008163842   -0.000004238
     19        1           0.005201952   -0.010202989   -0.000025324
     20        1           0.009593681    0.000703263    0.000013727
     21        1          -0.009622247   -0.000685931    0.000017613
     22        1          -0.004517181   -0.008274986   -0.000011676
     23        1           0.003789376   -0.008838958   -0.000025401
     24        1           0.011456778    0.000131980   -0.000013003
 -------------------------------------------------------------------
 Cartesian Forces:  Max     0.014684231 RMS     0.006625755

 GradGradGradGradGradGradGradGradGradGradGradGradGradGradGradGradGradGrad
 Berny optimization.
 FormGI is forming the generalized inverse of G from B-inverse, IUseBI=4.
 Internal  Forces:  Max     0.013418639 RMS     0.003763750
 Search for a local minimum.
 Step number   1 out of a maximum of  142
 All quantities printed in internal units (Hartrees-Bohrs-Radians)
 Mixed Optimization -- RFO/linear search
 Second derivative matrix not updated -- first step.
 ITU=  0
     Eigenvalues ---    0.01673   0.01712   0.01766   0.01821   0.01822
     Eigenvalues ---    0.01841   0.02043   0.02050   0.02066   0.02067
     Eigenvalues ---    0.02093   0.02094   0.02127   0.02127   0.02170
     Eigenvalues ---    0.02170   0.02189   0.02195   0.02250   0.02252
     Eigenvalues ---    0.02301   0.16000   0.16000   0.16000   0.16000
     Eigenvalues ---    0.16000   0.16000   0.16000   0.16000   0.16000
     Eigenvalues ---    0.16000   0.22000   0.22000   0.22334   0.22581
     Eigenvalues ---    0.22755   0.24316   0.24490   0.24712   0.25000
     Eigenvalues ---    0.33592   0.33592   0.33627   0.33627   0.33669
     Eigenvalues ---    0.33670   0.33701   0.33701   0.33713   0.33713
     Eigenvalues ---    0.36700   0.37014   0.39633   0.40225   0.40350
     Eigenvalues ---    0.40783   0.40796   0.43036   0.43174   0.44094
     Eigenvalues ---    0.44116   0.47397   0.47407   0.48532   0.48552
     Eigenvalues ---    0.52042
 RFO step:  Lambda=-5.12302627D-03 EMin= 1.67323601D-02
 Linear search not attempted -- first point.
 Iteration  1 RMS(Cart)=  0.02280511 RMS(Int)=  0.00009358
 Iteration  2 RMS(Cart)=  0.00014232 RMS(Int)=  0.00000917
 Iteration  3 RMS(Cart)=  0.00000002 RMS(Int)=  0.00000917
 Variable       Old X    -DE/DX   Delta X   Delta X   Delta X     New X
                                 (Linear)    (Quad)   (Total)
    R1        2.60762   0.00386   0.00000   0.00746   0.00745   2.61506
    R2        2.65706   0.00460   0.00000   0.00970   0.00969   2.66675
    R3        2.07816  -0.00941   0.00000  -0.02749  -0.02749   2.05068
    R4        2.67092   0.00494   0.00000   0.01137   0.01137   2.68229
    R5        2.07964  -0.00938   0.00000  -0.02747  -0.02747   2.05217
    R6        2.67528   0.01214   0.00000   0.02880   0.02882   2.70410
    R7        2.71190   0.00373   0.00000   0.00864   0.00863   2.72054
    R8        2.67264   0.00562   0.00000   0.01318   0.01319   2.68583
    R9        2.73263   0.01342   0.00000   0.03519   0.03521   2.76784
   R10        2.61015   0.00502   0.00000   0.01002   0.01002   2.62017
   R11        2.07838  -0.01142   0.00000  -0.03339  -0.03339   2.04499
   R12        2.07892  -0.00960   0.00000  -0.02808  -0.02808   2.05084
   R13        2.56453   0.00603   0.00000   0.01041   0.01039   2.57492
   R14        2.08025  -0.00962   0.00000  -0.02822  -0.02822   2.05203
   R15        2.67523   0.01215   0.00000   0.02881   0.02883   2.70406
   R16        2.67270   0.00562   0.00000   0.01316   0.01317   2.68587
   R17        2.71190   0.00373   0.00000   0.00863   0.00862   2.72052
   R18        2.67102   0.00490   0.00000   0.01128   0.01128   2.68231
   R19        2.08025  -0.00962   0.00000  -0.02821  -0.02821   2.05203
   R20        2.07963  -0.00938   0.00000  -0.02747  -0.02747   2.05216
   R21        2.60756   0.00389   0.00000   0.00752   0.00750   2.61507
   R22        2.65710   0.00459   0.00000   0.00969   0.00967   2.66678
   R23        2.07818  -0.00941   0.00000  -0.02750  -0.02750   2.05068
   R24        2.61008   0.00503   0.00000   0.01005   0.01005   2.62012
   R25        2.07891  -0.00959   0.00000  -0.02807  -0.02807   2.05085
   R26        2.07838  -0.01143   0.00000  -0.03340  -0.03340   2.04499
    A1        2.09093  -0.00071   0.00000  -0.00490  -0.00493   2.08601
    A2        2.10425  -0.00020   0.00000  -0.00093  -0.00092   2.10333
    A3        2.08800   0.00092   0.00000   0.00583   0.00585   2.09384
    A4        2.10475   0.00199   0.00000   0.00837   0.00837   2.11312
    A5        2.10362  -0.00082   0.00000  -0.00311  -0.00311   2.10051
    A6        2.07481  -0.00117   0.00000  -0.00526  -0.00526   2.06955
    A7        2.09238  -0.00070   0.00000  -0.00170  -0.00169   2.09069
    A8        2.09884   0.00105   0.00000   0.00343   0.00341   2.10226
    A9        2.09196  -0.00035   0.00000  -0.00173  -0.00173   2.09023
   A10        2.06493  -0.00306   0.00000  -0.01185  -0.01183   2.05309
   A11        2.08152  -0.00148   0.00000  -0.00387  -0.00385   2.07767
   A12        2.13673   0.00454   0.00000   0.01572   0.01568   2.15242
   A13        2.11204   0.00203   0.00000   0.00937   0.00939   2.12143
   A14        2.09384  -0.00015   0.00000   0.00055   0.00054   2.09438
   A15        2.07730  -0.00188   0.00000  -0.00992  -0.00993   2.06738
   A16        2.10133   0.00046   0.00000   0.00071   0.00070   2.10202
   A17        2.08464   0.00044   0.00000   0.00369   0.00370   2.08834
   A18        2.09722  -0.00090   0.00000  -0.00440  -0.00440   2.09282
   A19        2.10970   0.00183   0.00000   0.00559   0.00557   2.11527
   A20        2.05799  -0.00016   0.00000   0.00181   0.00182   2.05981
   A21        2.11549  -0.00168   0.00000  -0.00740  -0.00739   2.10810
   A22        2.08151  -0.00148   0.00000  -0.00386  -0.00384   2.07767
   A23        2.13675   0.00454   0.00000   0.01569   0.01566   2.15241
   A24        2.06493  -0.00306   0.00000  -0.01183  -0.01182   2.05311
   A25        2.09199  -0.00035   0.00000  -0.00174  -0.00174   2.09025
   A26        2.09246  -0.00071   0.00000  -0.00177  -0.00176   2.09070
   A27        2.09874   0.00107   0.00000   0.00351   0.00350   2.10223
   A28        2.10969   0.00183   0.00000   0.00560   0.00558   2.11527
   A29        2.11518  -0.00163   0.00000  -0.00715  -0.00714   2.10804
   A30        2.05832  -0.00020   0.00000   0.00155   0.00156   2.05988
   A31        2.07506  -0.00121   0.00000  -0.00548  -0.00548   2.06958
   A32        2.10466   0.00200   0.00000   0.00845   0.00844   2.11310
   A33        2.10347  -0.00079   0.00000  -0.00297  -0.00297   2.10050
   A34        2.09095  -0.00071   0.00000  -0.00490  -0.00493   2.08603
   A35        2.10423  -0.00020   0.00000  -0.00090  -0.00089   2.10334
   A36        2.08800   0.00091   0.00000   0.00580   0.00581   2.09381
   A37        2.10140   0.00044   0.00000   0.00063   0.00062   2.10202
   A38        2.08438   0.00048   0.00000   0.00390   0.00390   2.08828
   A39        2.09740  -0.00091   0.00000  -0.00452  -0.00452   2.09289
   A40        2.11198   0.00204   0.00000   0.00943   0.00945   2.12142
   A41        2.09369  -0.00014   0.00000   0.00064   0.00064   2.09433
   A42        2.07752  -0.00191   0.00000  -0.01008  -0.01008   2.06743
    D1       -0.00081   0.00002   0.00000   0.00089   0.00089   0.00007
    D2        3.14152   0.00000   0.00000   0.00004   0.00004   3.14157
    D3        3.14069   0.00002   0.00000   0.00089   0.00089   3.14158
    D4       -0.00016   0.00000   0.00000   0.00004   0.00004  -0.00011
    D5       -0.00043   0.00000   0.00000   0.00023   0.00023  -0.00020
    D6        3.14131   0.00000   0.00000  -0.00005  -0.00005   3.14126
    D7        3.14125   0.00000   0.00000   0.00023   0.00023   3.14148
    D8       -0.00020   0.00000   0.00000  -0.00005  -0.00005  -0.00025
    D9        0.00169  -0.00004   0.00000  -0.00146  -0.00146   0.00022
   D10       -3.14024  -0.00002   0.00000  -0.00085  -0.00085  -3.14109
   D11       -3.14064  -0.00002   0.00000  -0.00063  -0.00063  -3.14127
   D12        0.00062   0.00000   0.00000  -0.00002  -0.00002   0.00060
   D13       -0.00130   0.00002   0.00000   0.00091   0.00091  -0.00039
   D14        3.14041   0.00002   0.00000   0.00093   0.00092   3.14133
   D15        3.14062   0.00001   0.00000   0.00030   0.00030   3.14093
   D16       -0.00086   0.00001   0.00000   0.00032   0.00032  -0.00054
   D17       -3.14131  -0.00001   0.00000  -0.00047  -0.00047   3.14141
   D18        0.00057  -0.00001   0.00000  -0.00057  -0.00057   0.00000
   D19       -0.00005   0.00000   0.00000   0.00014   0.00014   0.00009
   D20       -3.14135   0.00000   0.00000   0.00004   0.00004  -3.14131
   D21        0.00008   0.00001   0.00000   0.00020   0.00020   0.00028
   D22       -3.14129   0.00000   0.00000  -0.00004  -0.00004  -3.14133
   D23        3.14155   0.00001   0.00000   0.00019   0.00018  -3.14145
   D24        0.00019   0.00000   0.00000  -0.00006  -0.00006   0.00013
   D25        0.00094  -0.00001   0.00000  -0.00035  -0.00035   0.00058
   D26       -3.14032  -0.00001   0.00000  -0.00050  -0.00050  -3.14083
   D27       -3.14054  -0.00001   0.00000  -0.00034  -0.00033  -3.14087
   D28        0.00139  -0.00001   0.00000  -0.00048  -0.00048   0.00090
   D29        0.00080  -0.00002   0.00000  -0.00078  -0.00078   0.00002
   D30       -3.14094  -0.00001   0.00000  -0.00050  -0.00050  -3.14144
   D31       -3.14102  -0.00001   0.00000  -0.00054  -0.00054  -3.14156
   D32        0.00042  -0.00001   0.00000  -0.00026  -0.00026   0.00016
   D33        0.00087  -0.00001   0.00000  -0.00055  -0.00055   0.00032
   D34       -3.14123   0.00000   0.00000  -0.00007  -0.00007  -3.14130
   D35       -3.14102  -0.00001   0.00000  -0.00045  -0.00045  -3.14147
   D36        0.00007   0.00000   0.00000   0.00003   0.00003   0.00010
   D37       -0.00014   0.00000   0.00000  -0.00005  -0.00005  -0.00019
   D38       -3.14132  -0.00001   0.00000  -0.00026  -0.00026  -3.14159
   D39        3.14114   0.00000   0.00000   0.00010   0.00010   3.14123
   D40       -0.00005   0.00000   0.00000  -0.00012  -0.00012  -0.00017
   D41        3.14109   0.00001   0.00000   0.00042   0.00043   3.14152
   D42       -0.00017   0.00000   0.00000   0.00020   0.00020   0.00003
   D43       -0.00017   0.00001   0.00000   0.00028   0.00027   0.00010
   D44       -3.14143   0.00000   0.00000   0.00005   0.00004  -3.14138
   D45       -0.00078   0.00001   0.00000   0.00051   0.00051  -0.00027
   D46        3.14130   0.00000   0.00000   0.00005   0.00005   3.14135
   D47        3.14041   0.00002   0.00000   0.00072   0.00072   3.14113
   D48       -0.00070   0.00001   0.00000   0.00026   0.00026  -0.00044
   D49        3.14156   0.00000   0.00000   0.00010   0.00010  -3.14153
   D50        0.00019   0.00000   0.00000  -0.00007  -0.00007   0.00012
   D51        0.00037   0.00000   0.00000  -0.00012  -0.00012   0.00026
   D52       -3.14100  -0.00001   0.00000  -0.00028  -0.00028  -3.14128
   D53       -0.00010   0.00000   0.00000   0.00010   0.00010  -0.00001
   D54        3.14147   0.00000   0.00000   0.00005   0.00005   3.14152
   D55       -3.14147   0.00000   0.00000  -0.00007  -0.00007  -3.14154
   D56        0.00010   0.00000   0.00000  -0.00011  -0.00011  -0.00001
   D57       -0.00012   0.00000   0.00000   0.00006   0.00006  -0.00006
   D58        3.14154   0.00000   0.00000  -0.00006  -0.00006   3.14148
   D59        3.14149   0.00000   0.00000   0.00010   0.00010  -3.14159
   D60       -0.00003   0.00000   0.00000  -0.00002  -0.00002  -0.00004
   D61        0.00026  -0.00001   0.00000  -0.00025  -0.00025   0.00001
   D62        3.14152   0.00000   0.00000  -0.00002  -0.00002   3.14150
   D63       -3.14141   0.00000   0.00000  -0.00013  -0.00013  -3.14153
   D64       -0.00015   0.00000   0.00000   0.00010   0.00010  -0.00005
         Item               Value     Threshold  Converged?
 Maximum Force            0.013419     0.000450     NO 
 RMS     Force            0.003764     0.000300     NO 
 Maximum Displacement     0.091984     0.001800     NO 
 RMS     Displacement     0.022738     0.001200     NO 
 Predicted change in Energy=-2.598424D-03
 GradGradGradGradGradGradGradGradGradGradGradGradGradGradGradGradGradGrad

                          Input orientation:                          
 ---------------------------------------------------------------------
 Center     Atomic      Atomic             Coordinates (Angstroms)
 Number     Number       Type             X           Y           Z
 ---------------------------------------------------------------------
      1          6           0       -3.190587   -5.863091   -0.003831
      2          6           0       -1.806831   -5.848552   -0.004627
      3          6           0       -1.087050   -4.625185   -0.003448
      4          6           0       -1.796918   -3.382729   -0.001122
      5          6           0       -3.217236   -3.434996   -0.000579
      6          6           0       -3.898765   -4.642469   -0.001905
      7          6           0        0.352595   -4.625696   -0.004919
      8          6           0       -1.037805   -2.130123    0.000406
      9          6           0        0.392092   -2.184435   -0.001199
     10          6           0        1.058789   -3.460390   -0.004034
     11          6           0        1.143500   -0.980224    0.000254
     12          1           0        2.227562   -1.044345   -0.001062
     13          6           0        0.516008    0.253162    0.003354
     14          6           0       -0.893784    0.316083    0.005096
     15          6           0       -1.648774   -0.846843    0.003648
     16          1           0        0.862355   -5.584496   -0.006943
     17          1           0       -3.731699   -6.803726   -0.004757
     18          1           0       -1.248292   -6.779866   -0.006082
     19          1           0       -3.792400   -2.518337    0.000912
     20          1           0       -4.983987   -4.651341   -0.001591
     21          1           0        2.144646   -3.468630   -0.005431
     22          1           0        1.099426    1.168159    0.004509
     23          1           0       -1.388070    1.282244    0.007631
     24          1           0       -2.727543   -0.761241    0.005145
 ---------------------------------------------------------------------
                    Distance matrix (angstroms):
                    1          2          3          4          5
     1  C    0.000000
     2  C    1.383832   0.000000
     3  C    2.440754   1.419406   0.000000
     4  C    2.845086   2.465845   1.430948   0.000000
     5  C    2.428244   2.795444   2.440133   1.421279   0.000000
     6  C    1.411184   2.414712   2.811768   2.450450   1.386533
     7  C    3.753037   2.481632   1.439646   2.483019   3.763174
     8  C    4.309239   3.797123   2.495551   1.464677   2.540199
     9  C    5.134989   4.273293   2.853967   2.495531   3.819837
    10  C    4.881616   3.730295   2.441593   2.856765   4.276102
    11  C    6.528914   5.692547   4.273302   3.797116   5.004190
    12  H    7.250977   6.273496   4.879455   4.654512   5.946515
    13  C    7.151745   6.528902   5.134989   4.309217   5.247822
    14  C    6.592236   6.231891   4.945053   3.807479   4.412374
    15  C    5.247856   5.004213   3.819876   2.540214   3.026322
    16  H    4.062507   2.682216   2.172664   3.452469   4.611231
    17  H    1.085172   2.148831   3.426399   3.930218   3.407790
    18  H    2.147788   1.085963   2.160707   3.441156   3.881356
    19  H    3.398468   3.877221   3.428957   2.174656   1.082165
    20  H    2.164400   3.395238   3.897025   3.430275   2.144972
    21  H    5.847919   4.612830   3.432416   3.942502   5.361989
    22  H    8.236672   7.594777   6.192219   5.394388   6.310517
    23  H    7.369194   7.143092   5.915104   4.682864   5.059473
    24  H    5.122828   5.169965   4.197779   2.781781   2.718234
                    6          7          8          9         10
     6  C    0.000000
     7  C    4.251394   0.000000
     8  C    3.807490   2.856768   0.000000
     9  C    4.945037   2.441583   1.430929   0.000000
    10  C    5.096534   1.362589   2.483011   1.439638   0.000000
    11  C    6.231892   3.730284   2.465838   1.419415   2.481616
    12  H    7.104814   4.042473   3.441154   2.160730   2.683899
    13  C    6.592227   4.881601   2.845064   2.440749   3.753017
    14  C    5.798033   5.096541   2.450446   2.811780   4.251397
    15  C    4.412399   4.276129   1.421302   2.440146   3.763189
    16  H    4.853422   1.085890   3.942506   3.432433   2.133171
    17  H    2.167707   4.628745   5.394410   6.192215   5.841804
    18  H    3.404922   2.683894   4.654510   4.879434   4.042468
    19  H    2.126795   4.649944   2.781817   4.197794   4.941815
    20  H    1.085258   5.336645   4.682830   5.915053   6.159019
    21  H    6.156356   2.133131   3.452482   2.172698   1.085888
    22  H    7.664552   5.841797   3.930195   3.426403   4.628735
    23  H    6.434742   6.159044   3.430304   3.897040   5.336651
    24  H    4.054102   4.941797   2.174643   3.428942   4.649925
                   11         12         13         14         15
    11  C    0.000000
    12  H    1.085958   0.000000
    13  C    1.383834   2.147781   0.000000
    14  C    2.414739   3.404939   1.411197   0.000000
    15  C    2.795460   3.881367   2.428228   1.386509   0.000000
    16  H    4.612853   4.740970   5.847932   6.156378   5.362018
    17  H    7.594786   8.287538   8.236672   7.664564   6.310555
    18  H    6.273480   6.706548   7.250954   7.104807   5.946532
    19  H    5.170000   6.197790   5.122851   4.054125   2.718278
    20  H    7.143052   8.063303   7.369133   6.434679   5.059435
    21  H    2.682254   2.425707   4.062545   4.853475   4.611278
    22  H    2.148839   2.483524   1.085171   2.167700   3.407761
    23  H    3.395241   4.299522   2.164380   1.085262   2.144993
    24  H    3.877235   4.963190   3.398476   2.126804   1.082161
                   16         17         18         19         20
    16  H    0.000000
    17  H    4.753090   0.000000
    18  H    2.425642   2.483523   0.000000
    19  H    5.573880   4.285823   4.963181   0.000000
    20  H    5.920348   2.490180   4.299542   2.443274   0.000000
    21  H    2.474098   6.756796   4.740918   6.012621   7.226079
    22  H    6.756825   9.321524   8.287520   6.125376   8.418701
    23  H    7.226115   8.418769   8.063333   4.497251   6.938165
    24  H    6.012595   6.125362   6.197754   2.054587   4.497162
                   21         22         23         24
    21  H    0.000000
    22  H    4.753145   0.000000
    23  H    5.920393   2.490113   0.000000
    24  H    5.573893   4.285823   2.443363   0.000000
 Stoichiometry    C14H10
 Framework group  C1[X(C14H10)]
 Deg. of freedom    66
 Full point group                 C1      NOp   1
 Largest Abelian subgroup         C1      NOp   1
 Largest concise Abelian subgroup C1      NOp   1
                         Standard orientation:                         
 ---------------------------------------------------------------------
 Center     Atomic      Atomic             Coordinates (Angstroms)
 Number     Number       Type             X           Y           Z
 ---------------------------------------------------------------------
      1          6           0        3.575878   -0.292063    0.000279
      2          6           0        2.846276    0.883808    0.000648
      3          6           0        1.426991    0.865332    0.000336
      4          6           0        0.732333   -0.385693   -0.000092
      5          6           0        1.513149   -1.573279   -0.000680
      6          6           0        2.899017   -1.530327   -0.000510
      7          6           0        0.681295    2.096801    0.000104
      8          6           0       -0.732344   -0.385688   -0.000071
      9          6           0       -1.426976    0.865330   -0.000353
     10          6           0       -0.681294    2.096798   -0.000413
     11          6           0       -2.846271    0.883829   -0.000330
     12          1           0       -3.353277    1.844167   -0.000603
     13          6           0       -3.575867   -0.292048    0.000104
     14          6           0       -2.899016   -1.530334    0.000524
     15          6           0       -1.513173   -1.573293    0.000433
     16          1           0        1.237078    3.029680    0.000173
     17          1           0        4.660768   -0.267320    0.000509
     18          1           0        3.353271    1.844157    0.001280
     19          1           0        1.027304   -2.540251   -0.001265
     20          1           0        3.469049   -2.453825   -0.001114
     21          1           0       -1.237020    3.029708   -0.000861
     22          1           0       -4.660756   -0.267323    0.000183
     23          1           0       -3.469116   -2.453794    0.000967
     24          1           0       -1.027282   -2.540237    0.000854
 ---------------------------------------------------------------------
 Rotational constants (GHZ):           1.6089465           0.5453111           0.4072756
 Standard basis: 6-31G (6D, 7F)
 There are   146 symmetry adapted cartesian basis functions of A   symmetry.
 There are   146 symmetry adapted basis functions of A   symmetry.
   146 basis functions,   348 primitive gaussians,   146 cartesian basis functions
    47 alpha electrons       47 beta electrons
       nuclear repulsion energy       772.0684272117 Hartrees.
 NAtoms=   24 NActive=   24 NUniq=   24 SFac= 1.00D+00 NAtFMM=   60 NAOKFM=F Big=F
 Integral buffers will be    131072 words long.
 Raffenetti 2 integral format.
 Two-electron integral symmetry is turned on.
 One-electron integrals computed using PRISM.
 NBasis=   146 RedAO= T EigKep=  2.87D-04  NBF=   146
 NBsUse=   146 1.00D-06 EigRej= -1.00D+00 NBFU=   146
 Initial guess from the checkpoint file:  "phenanthrene_opt.chk"
 B after Tr=     0.000000    0.000000    0.000000
         Rot=    1.000000    0.000001    0.000001    0.000004 Ang=   0.00 deg.
 ExpMin= 1.61D-01 ExpMax= 3.05D+03 ExpMxC= 4.57D+02 IAcc=2 IRadAn=         4 AccDes= 0.00D+00
 Harris functional with IExCor=  402 and IRadAn=       4 diagonalized for initial guess.
 HarFok:  IExCor=  402 AccDes= 0.00D+00 IRadAn=         4 IDoV= 1 UseB2=F ITyADJ=14
 ICtDFT=  3500011 ScaDFX=  1.000000  1.000000  1.000000  1.000000
 FoFCou: FMM=F IPFlag=           0 FMFlag=      100000 FMFlg1=           0
         NFxFlg=           0 DoJE=T BraDBF=F KetDBF=T FulRan=T
         wScrn=  0.000000 ICntrl=       500 IOpCl=  0 I1Cent=   200000004 NGrid=           0
         NMat0=    1 NMatS0=      1 NMatT0=    0 NMatD0=    1 NMtDS0=    0 NMtDT0=    0
 Petite list used in FoFCou.
 Keep R1 ints in memory in canonical form, NReq=61469874.
 Requested convergence on RMS density matrix=1.00D-08 within 128 cycles.
 Requested convergence on MAX density matrix=1.00D-06.
 Requested convergence on             energy=1.00D-06.
 No special actions if energy rises.
 Integral accuracy reduced to 1.0D-05 until final iterations.
 Initial convergence to 1.0D-05 achieved.  Increase integral accuracy.
 SCF Done:  E(RB3LYP) =  -539.418773360     A.U. after   12 cycles
            NFock= 12  Conv=0.40D-08     -V/T= 2.0056
 Calling FoFJK, ICntrl=      2127 FMM=F ISym2X=0 I1Cent= 0 IOpClX= 0 NMat=1 NMatS=1 NMatT=0.
 ***** Axes restored to original set *****
 -------------------------------------------------------------------
 Center     Atomic                   Forces (Hartrees/Bohr)
 Number     Number              X              Y              Z
 -------------------------------------------------------------------
      1        6          -0.000315921    0.000516635   -0.000000868
      2        6           0.000300980    0.001354164    0.000013528
      3        6           0.001363720   -0.000904815   -0.000014578
      4        6          -0.001164497    0.001177680   -0.000006483
      5        6           0.002382665    0.000663807    0.000017462
      6        6           0.000484553   -0.000741955   -0.000010082
      7        6          -0.001566098   -0.000171882    0.000002848
      8        6          -0.001594807    0.000495340    0.000010445
      9        6           0.001450760   -0.000780519    0.000004271
     10        6          -0.000571553    0.001448987   -0.000001686
     11        6          -0.001073793   -0.000885691   -0.000003904
     12        1           0.000292215   -0.000170406    0.000000992
     13        6          -0.000606278    0.000039208   -0.000000739
     14        6           0.000901677   -0.000070895   -0.000001214
     15        6           0.000510910   -0.002448590   -0.000013051
     16        1           0.000404824   -0.000023510    0.000001420
     17        1           0.000179637   -0.000130279   -0.000000600
     18        1           0.000282805   -0.000179206   -0.000010051
     19        1          -0.000143797    0.001504293   -0.000000420
     20        1          -0.000095834    0.000429886    0.000007801
     21        1           0.000209121   -0.000339671    0.000006289
     22        1           0.000200611   -0.000099606   -0.000001326
     23        1          -0.000429861   -0.000119063   -0.000000254
     24        1          -0.001402040   -0.000563910    0.000000200
 -------------------------------------------------------------------
 Cartesian Forces:  Max     0.002448590 RMS     0.000745533

 GradGradGradGradGradGradGradGradGradGradGradGradGradGradGradGradGradGrad
 Berny optimization.
 Using GEDIIS/GDIIS optimizer.
 FormGI is forming the generalized inverse of G from B-inverse, IUseBI=4.
 Internal  Forces:  Max     0.004422670 RMS     0.000766642
 Search for a local minimum.
 Step number   2 out of a maximum of  142
 All quantities printed in internal units (Hartrees-Bohrs-Radians)
 Mixed Optimization -- En-DIIS/RFO-DIIS
 Update second derivatives using D2CorX and points    1    2
 DE= -2.28D-03 DEPred=-2.60D-03 R= 8.76D-01
 TightC=F SS=  1.41D+00  RLast= 1.20D-01 DXNew= 5.0454D-01 3.6108D-01
 Trust test= 8.76D-01 RLast= 1.20D-01 DXMaxT set to 3.61D-01
 ITU=  1  0
 Use linear search instead of GDIIS.
     Eigenvalues ---    0.01673   0.01711   0.01765   0.01821   0.01822
     Eigenvalues ---    0.01840   0.02044   0.02049   0.02066   0.02067
     Eigenvalues ---    0.02092   0.02093   0.02126   0.02127   0.02169
     Eigenvalues ---    0.02169   0.02190   0.02195   0.02250   0.02252
     Eigenvalues ---    0.02299   0.15866   0.16000   0.16000   0.16000
     Eigenvalues ---    0.16000   0.16000   0.16000   0.16000   0.16000
     Eigenvalues ---    0.16058   0.21998   0.22000   0.22332   0.22726
     Eigenvalues ---    0.22751   0.24417   0.24483   0.24706   0.25000
     Eigenvalues ---    0.32526   0.33592   0.33607   0.33627   0.33645
     Eigenvalues ---    0.33669   0.33695   0.33701   0.33713   0.33980
     Eigenvalues ---    0.36760   0.38457   0.39680   0.40371   0.40551
     Eigenvalues ---    0.40801   0.41815   0.43043   0.43046   0.44094
     Eigenvalues ---    0.47055   0.47413   0.47450   0.48557   0.48872
     Eigenvalues ---    0.52019
 RFO step:  Lambda=-1.46561458D-04 EMin= 1.67311794D-02
 Quartic linear search produced a step of -0.09981.
 Iteration  1 RMS(Cart)=  0.00980965 RMS(Int)=  0.00001876
 Iteration  2 RMS(Cart)=  0.00002757 RMS(Int)=  0.00000077
 Iteration  3 RMS(Cart)=  0.00000000 RMS(Int)=  0.00000077
 Variable       Old X    -DE/DX   Delta X   Delta X   Delta X     New X
                                 (Linear)    (Quad)   (Total)
    R1        2.61506   0.00044  -0.00074   0.00191   0.00116   2.61623
    R2        2.66675   0.00011  -0.00097   0.00166   0.00069   2.66744
    R3        2.05068   0.00002   0.00274  -0.00350  -0.00075   2.04992
    R4        2.68229  -0.00138  -0.00113  -0.00140  -0.00254   2.67975
    R5        2.05217   0.00030   0.00274  -0.00276  -0.00002   2.05216
    R6        2.70410  -0.00035  -0.00288   0.00269  -0.00019   2.70391
    R7        2.72054  -0.00098  -0.00086  -0.00094  -0.00180   2.71874
    R8        2.68583  -0.00300  -0.00132  -0.00468  -0.00600   2.67983
    R9        2.76784  -0.00442  -0.00351  -0.00599  -0.00951   2.75833
   R10        2.62017  -0.00011  -0.00100   0.00111   0.00011   2.62028
   R11        2.04499   0.00135   0.00333  -0.00072   0.00261   2.04761
   R12        2.05084   0.00009   0.00280  -0.00339  -0.00059   2.05025
   R13        2.57492   0.00034  -0.00104   0.00212   0.00108   2.57600
   R14        2.05203   0.00021   0.00282  -0.00309  -0.00027   2.05176
   R15        2.70406  -0.00034  -0.00288   0.00271  -0.00017   2.70390
   R16        2.68587  -0.00301  -0.00131  -0.00471  -0.00603   2.67984
   R17        2.72052  -0.00098  -0.00086  -0.00093  -0.00179   2.71873
   R18        2.68231  -0.00138  -0.00113  -0.00142  -0.00254   2.67976
   R19        2.05203   0.00021   0.00282  -0.00309  -0.00027   2.05176
   R20        2.05216   0.00030   0.00274  -0.00275  -0.00001   2.05215
   R21        2.61507   0.00043  -0.00075   0.00190   0.00115   2.61622
   R22        2.66678   0.00011  -0.00097   0.00165   0.00068   2.66745
   R23        2.05068   0.00002   0.00274  -0.00350  -0.00075   2.04992
   R24        2.62012  -0.00009  -0.00100   0.00115   0.00014   2.62026
   R25        2.05085   0.00009   0.00280  -0.00340  -0.00059   2.05025
   R26        2.04499   0.00135   0.00333  -0.00071   0.00262   2.04761
    A1        2.08601   0.00014   0.00049   0.00060   0.00109   2.08709
    A2        2.10333  -0.00030   0.00009  -0.00201  -0.00192   2.10141
    A3        2.09384   0.00016  -0.00058   0.00142   0.00083   2.09468
    A4        2.11312  -0.00021  -0.00083   0.00050  -0.00033   2.11279
    A5        2.10051   0.00026   0.00031   0.00076   0.00107   2.10158
    A6        2.06955  -0.00005   0.00052  -0.00126  -0.00073   2.06882
    A7        2.09069  -0.00088   0.00017  -0.00368  -0.00351   2.08718
    A8        2.10226   0.00102  -0.00034   0.00435   0.00401   2.10626
    A9        2.09023  -0.00014   0.00017  -0.00066  -0.00049   2.08974
   A10        2.05309   0.00193   0.00118   0.00520   0.00639   2.05948
   A11        2.07767   0.00050   0.00038   0.00081   0.00119   2.07887
   A12        2.15242  -0.00244  -0.00157  -0.00601  -0.00758   2.14484
   A13        2.12143  -0.00075  -0.00094  -0.00216  -0.00310   2.11833
   A14        2.09438  -0.00032  -0.00005  -0.00213  -0.00218   2.09219
   A15        2.06738   0.00107   0.00099   0.00429   0.00528   2.07266
   A16        2.10202  -0.00023  -0.00007  -0.00046  -0.00053   2.10150
   A17        2.08834   0.00055  -0.00037   0.00324   0.00287   2.09121
   A18        2.09282  -0.00033   0.00044  -0.00278  -0.00234   2.09048
   A19        2.11527  -0.00036  -0.00056  -0.00014  -0.00070   2.11457
   A20        2.05981   0.00054  -0.00018   0.00267   0.00249   2.06230
   A21        2.10810  -0.00017   0.00074  -0.00253  -0.00179   2.10631
   A22        2.07767   0.00051   0.00038   0.00082   0.00120   2.07887
   A23        2.15241  -0.00244  -0.00156  -0.00602  -0.00758   2.14483
   A24        2.05311   0.00193   0.00118   0.00520   0.00638   2.05949
   A25        2.09025  -0.00014   0.00017  -0.00068  -0.00051   2.08975
   A26        2.09070  -0.00088   0.00018  -0.00369  -0.00352   2.08718
   A27        2.10223   0.00102  -0.00035   0.00438   0.00403   2.10626
   A28        2.11527  -0.00036  -0.00056  -0.00014  -0.00070   2.11457
   A29        2.10804  -0.00016   0.00071  -0.00245  -0.00174   2.10630
   A30        2.05988   0.00053  -0.00016   0.00259   0.00243   2.06231
   A31        2.06958  -0.00005   0.00055  -0.00131  -0.00076   2.06882
   A32        2.11310  -0.00021  -0.00084   0.00052  -0.00032   2.11278
   A33        2.10050   0.00026   0.00030   0.00078   0.00108   2.10158
   A34        2.08603   0.00013   0.00049   0.00058   0.00107   2.08710
   A35        2.10334  -0.00030   0.00009  -0.00201  -0.00192   2.10142
   A36        2.09381   0.00016  -0.00058   0.00143   0.00085   2.09467
   A37        2.10202  -0.00022  -0.00006  -0.00046  -0.00052   2.10150
   A38        2.08828   0.00056  -0.00039   0.00330   0.00291   2.09119
   A39        2.09289  -0.00034   0.00045  -0.00284  -0.00239   2.09050
   A40        2.12142  -0.00075  -0.00094  -0.00215  -0.00309   2.11833
   A41        2.09433  -0.00031  -0.00006  -0.00209  -0.00216   2.09217
   A42        2.06743   0.00107   0.00101   0.00424   0.00525   2.07268
    D1        0.00007   0.00000  -0.00009   0.00007  -0.00002   0.00006
    D2        3.14157   0.00000   0.00000   0.00006   0.00005  -3.14157
    D3        3.14158   0.00000  -0.00009   0.00013   0.00004  -3.14156
    D4       -0.00011   0.00000   0.00000   0.00012   0.00012   0.00000
    D5       -0.00020   0.00000  -0.00002   0.00014   0.00012  -0.00008
    D6        3.14126   0.00000   0.00000   0.00018   0.00018   3.14144
    D7        3.14148   0.00000  -0.00002   0.00008   0.00006   3.14154
    D8       -0.00025   0.00000   0.00000   0.00012   0.00012  -0.00012
    D9        0.00022   0.00000   0.00015  -0.00032  -0.00017   0.00005
   D10       -3.14109  -0.00001   0.00009  -0.00040  -0.00032  -3.14141
   D11       -3.14127   0.00000   0.00006  -0.00031  -0.00024  -3.14151
   D12        0.00060  -0.00001   0.00000  -0.00039  -0.00039   0.00021
   D13       -0.00039   0.00000  -0.00009   0.00034   0.00025  -0.00014
   D14        3.14133   0.00000  -0.00009   0.00025   0.00016   3.14149
   D15        3.14093   0.00001  -0.00003   0.00043   0.00040   3.14132
   D16       -0.00054   0.00001  -0.00003   0.00034   0.00031  -0.00023
   D17        3.14141   0.00000   0.00005   0.00002   0.00007   3.14147
   D18        0.00000   0.00000   0.00006  -0.00012  -0.00006  -0.00006
   D19        0.00009   0.00000  -0.00001  -0.00007  -0.00008   0.00001
   D20       -3.14131   0.00000   0.00000  -0.00021  -0.00021  -3.14152
   D21        0.00028   0.00000  -0.00002  -0.00014  -0.00016   0.00012
   D22       -3.14133   0.00000   0.00000  -0.00009  -0.00008  -3.14141
   D23       -3.14145   0.00000  -0.00002  -0.00004  -0.00006  -3.14151
   D24        0.00013   0.00000   0.00001   0.00001   0.00001   0.00014
   D25        0.00058  -0.00001   0.00004  -0.00032  -0.00029   0.00029
   D26       -3.14083  -0.00001   0.00005  -0.00046  -0.00041  -3.14124
   D27       -3.14087  -0.00001   0.00003  -0.00042  -0.00039  -3.14126
   D28        0.00090  -0.00001   0.00005  -0.00056  -0.00051   0.00039
   D29        0.00002   0.00000   0.00008  -0.00011  -0.00003  -0.00001
   D30       -3.14144   0.00000   0.00005  -0.00014  -0.00009  -3.14153
   D31       -3.14156   0.00000   0.00005  -0.00015  -0.00010   3.14152
   D32        0.00016   0.00000   0.00003  -0.00019  -0.00016   0.00000
   D33        0.00032   0.00000   0.00006  -0.00023  -0.00017   0.00015
   D34       -3.14130   0.00000   0.00001  -0.00016  -0.00015  -3.14145
   D35       -3.14147   0.00000   0.00004  -0.00008  -0.00004  -3.14150
   D36        0.00010   0.00000   0.00000  -0.00001  -0.00001   0.00009
   D37       -0.00019   0.00000   0.00001   0.00004   0.00005  -0.00014
   D38       -3.14159   0.00000   0.00003  -0.00009  -0.00006   3.14153
   D39        3.14123   0.00000  -0.00001   0.00017   0.00016   3.14139
   D40       -0.00017   0.00000   0.00001   0.00004   0.00005  -0.00011
   D41        3.14152   0.00000  -0.00004   0.00015   0.00011  -3.14156
   D42        0.00003   0.00000  -0.00002   0.00009   0.00007   0.00010
   D43        0.00010   0.00000  -0.00003   0.00002  -0.00001   0.00009
   D44       -3.14138   0.00000   0.00000  -0.00005  -0.00005  -3.14144
   D45       -0.00027   0.00000  -0.00005   0.00024   0.00019  -0.00008
   D46        3.14135   0.00000   0.00000   0.00017   0.00017   3.14152
   D47        3.14113   0.00000  -0.00007   0.00037   0.00030   3.14143
   D48       -0.00044   0.00000  -0.00003   0.00030   0.00028  -0.00016
   D49       -3.14153   0.00000  -0.00001  -0.00001  -0.00002  -3.14155
   D50        0.00012   0.00000   0.00001  -0.00007  -0.00006   0.00006
   D51        0.00026   0.00000   0.00001  -0.00014  -0.00013   0.00013
[...]
 01273537,0.02989819,0.00006401,-0.00487281,-0.00235297,0.00000338,-0.0
 0016133,0.00170647,0.00000306,0.00014984,-0.00005118,-0.00000024,-0.12
 252299,0.11680434,0.00026665,-0.00036840,-0.00072250,-0.00000089,-0.00
 171789,-0.00272202,0.00000537,0.01113937,-0.01887634,-0.00003697,0.000
 64019,-0.00036194,-0.00000096,-0.00001091,0.00000737,0.00000022,-0.000
 02331,-0.00023117,-0.00000116,-0.00012593,-0.00001222,0.00000033,0.000
 14857,0.00017796,-0.00000074,0.12839917,0.00038112,0.00002199,-0.00000
 016,-0.00152024,0.00099692,0.00000720,-0.00305422,0.00136247,-0.000001
 00,-0.00074066,0.00115184,-0.00000338,-0.00041229,-0.00018888,-0.00000
 027,-0.00001752,0.00031805,0.00000064,0.11609670,-0.27577896,-0.000492
 90,-0.00029270,0.00015300,0.00000051,-0.00431244,-0.00141935,-0.000013
 65,0.01678004,-0.02059375,-0.00005673,0.00120994,-0.00059581,-0.000002
 67,-0.00007885,-0.00000954,-0.00000030,-0.00027681,-0.00040761,0.00000
 095,-0.00017289,0.00002049,-0.00000024,0.00009229,0.00013699,0.0000018
 6,-0.12390879,0.29353025,0.00000042,0.00000043,-0.00004760,-0.00000589
 ,0.00000412,-0.00259736,0.00000845,-0.00003002,0.00363628,0.00000607,-
 0.00000281,0.00362081,-0.00000025,-0.00000210,0.00015601,-0.00000026,0
 .00000064,-0.00007248,0.00026624,-0.00049275,-0.03844576,0.00000018,0.
 00000103,0.00002102,0.00000336,-0.00001536,0.00936883,0.00002148,-0.00
 002558,0.00465692,0.00000151,-0.00000136,0.00031434,0.00000009,-0.0000
 0041,0.00022304,-0.00000137,0.00000123,-0.00086769,0.00000025,-0.00000
 037,0.00026422,-0.00000097,0.00000179,-0.00104970,-0.00029451,0.000550
 01,0.02580838,-0.13115763,-0.12164200,-0.00012582,-0.01198716,-0.03112
 700,-0.00003889,-0.00492727,0.00210029,0.00001416,-0.00074787,0.000497
 69,0.00000119,-0.00123070,0.00302796,0.00001043,0.01128183,0.01738132,
 0.00002212,0.00016683,-0.00151769,-0.00000243,0.00024229,0.00009430,-0
 .00000093,-0.00008211,0.00026446,0.00000066,-0.00057224,-0.00003843,0.
 ,0.00002863,-0.00008689,-0.00000015,-0.00000341,0.00000452,0.00000001,
 -0.00005454,0.00004472,0.00000013,0.00009796,-0.00000707,-0.00000017,-
 0.00005600,-0.00008338,0.,-0.00003627,0.00004319,0.00000017,0.13680530
 ,-0.12210065,-0.27185254,-0.00028583,0.00411100,0.00345208,-0.00000348
 ,0.00093657,0.00153983,-0.00001179,0.00087261,0.00043338,0.00000046,0.
 00404590,-0.00250837,-0.00001667,-0.01754141,-0.01908221,-0.00002265,0
 .00010877,-0.00010120,-0.00000088,-0.00010563,0.00001480,0.00000200,0.
 00000128,-0.00006240,-0.00000045,-0.00007357,0.00011651,0.00000120,0.0
 0000358,0.00001961,-0.00000001,-0.00001703,0.00000081,0.00000001,0.000
 02251,-0.00002543,-0.00000006,-0.00004888,0.00000194,0.00000017,0.0000
 3223,-0.00004288,-0.00000028,-0.00003385,0.00003015,-0.00000008,0.1306
 0735,0.28714678,-0.00012682,-0.00028583,-0.03824101,0.00001953,0.00002
 444,0.00358518,0.00001219,-0.00001318,0.00827021,0.00000162,0.00000086
 ,-0.00023923,0.00001218,-0.00001604,0.00587501,-0.00003526,-0.00005025
 ,0.00304706,0.00000027,0.00000028,0.00038123,-0.00000139,0.00000183,-0
 .00115720,0.00000035,-0.00000065,0.00021074,-0.00000019,0.00000124,-0.
 00057949,0.,0.,0.00002626,-0.00000002,0.,0.00000308,0.00000003,-0.0000
 0005,-0.00000057,-0.00000017,0.00000016,-0.00007519,0.00000008,-0.0000
 0019,0.00008333,0.00000007,-0.00000014,0.00009847,0.00012654,0.0003237
 3,0.02634291,-0.01231697,0.03095548,0.00006445,-0.13215807,0.12168313,
 0.00027815,0.00956322,-0.01620472,-0.00003147,-0.00146771,-0.00266498,
 0.00000103,-0.00045212,-0.00072809,-0.00000083,-0.00517127,-0.00189914
 ,0.00000715,0.00126392,-0.00169220,-0.00000691,0.00038705,-0.00079861,
 -0.00000141,0.00026439,-0.00014605,-0.00000060,0.00009522,0.00040469,0
 .00000058,-0.00004253,0.00011575,0.00000026,0.00000211,-0.00001789,-0.
 00000002,0.00005612,-0.00001266,-0.00000009,-0.00000287,-0.00007444,-0
 .00000012,-0.00017148,-0.00005758,0.00000012,-0.00005034,0.00047764,0.
 00000109,0.00104817,-0.00047142,-0.00000537,0.13974560,-0.00435877,0.0
 0361465,0.00000282,0.12156001,-0.26588554,-0.00047544,0.01687126,-0.02
 113521,-0.00005497,-0.00408655,-0.00199638,-0.00000864,-0.00090592,0.0
 0021389,0.00000119,-0.00065557,0.00162704,-0.00000951,0.00222969,0.000
 91924,0.00000581,0.00138133,-0.00064466,-0.00000288,0.00014261,0.00014
 303,0.00000029,-0.00035971,0.00017559,0.00000061,-0.00007320,0.0000517
 1,0.00000013,-0.00004428,-0.00003035,-0.00000003,-0.00004611,-0.000009
 57,0.00000005,0.00010516,-0.00004714,-0.00000023,-0.00041988,-0.000294
 00,-0.00000028,-0.00135277,0.00042878,0.00000138,0.00049485,0.00095589
 ,0.00000890,-0.13043771,0.28202270,0.00000468,-0.00002526,0.00401728,0
 .00027942,-0.00047520,-0.03791096,0.00002296,-0.00002978,0.00380479,-0
 .00000208,-0.00000921,0.00524784,-0.00000050,0.00000147,-0.00006945,0.
 00000931,-0.00000895,0.00766378,-0.00000070,0.00000944,-0.00379720,0.0
 0000225,-0.00000107,0.00037902,-0.00000012,0.00000060,-0.00011476,-0.0
 0000071,-0.00000012,-0.00001009,-0.00000009,-0.00000004,0.00001372,-0.
 00000006,-0.00000006,0.00001314,-0.00000014,0.00000002,-0.00001531,0.0
 0000020,-0.00000004,0.00001968,-0.00000045,-0.00000051,0.00007818,-0.0
 0000191,-0.00000021,0.00031909,-0.00000375,0.00000958,-0.00464733,-0.0
 0030821,0.00052953,0.02586900,-0.00101826,-0.00288512,0.00000178,-0.00
 063925,-0.00071590,-0.00000088,-0.00497104,-0.00235560,0.00000404,-0.0
 1209498,0.02969581,0.00006023,-0.13818475,0.12740918,0.00027926,0.0107
 1191,-0.01762003,-0.00003353,-0.00006837,0.00163795,0.00000305,0.00113
 066,0.00075095,-0.00000189,-0.00014805,-0.00001442,0.00000018,0.000027
 14,0.00010079,-0.00000004,0.00021876,0.00003874,-0.00000004,0.00002774
 ,0.00000056,-0.00000002,0.00014511,0.00005744,-0.00000010,0.00063528,-
 0.00044045,-0.00000148,-0.00148133,0.00039149,0.00000225,-0.00050775,0
 .00002984,0.00000057,0.00034909,-0.00071363,-0.00000133,0.00009655,0.0
 0016536,-0.00000077,0.14423104,-0.00407086,-0.00255395,-0.00001371,-0.
 00074281,0.00037308,0.00000138,-0.00111062,0.00126290,-0.00000644,-0.0
 0158063,0.00403913,0.00000203,0.12642489,-0.26347619,-0.00045655,0.018
 10759,-0.02126137,-0.00005512,-0.00034450,0.00002994,-0.00000001,0.000
 41383,-0.00133887,0.00000215,0.00017856,0.00002782,0.,0.00013340,0.000
 07617,0.00000032,0.00002645,-0.00001412,-0.00000011,0.00002640,0.00002
 538,-0.00000003,0.00000456,-0.00005752,-0.00000018,-0.00031641,0.00012
 653,0.00000104,-0.00188048,-0.00141172,-0.00000078,0.00000637,0.000006
 32,-0.00000007,0.00076836,-0.00107846,-0.00000265,0.00014129,-0.000065
 40,0.00000200,-0.13310347,0.28652085,0.00000019,-0.00001540,0.00788953
 ,-0.00000123,0.00000110,-0.00014774,0.00000666,-0.00000550,0.00580769,
 0.00001178,-0.00002079,0.00329041,0.00027534,-0.00045605,-0.03775058,0
 .00002477,-0.00002849,0.00418677,-0.00000037,-0.00000151,0.00025277,-0
 .00000280,0.00000107,-0.00291174,0.00000073,0.00000017,-0.00007271,0.0
 0000002,0.00000055,-0.00021309,0.00000004,-0.00000040,0.00006122,0.000
 00006,-0.00000001,0.00003030,-0.00000029,-0.00000003,0.00004034,-0.000
 00074,0.00000121,-0.00029643,-0.00000396,-0.00000170,-0.00045901,0.000
 00042,-0.00000012,0.00006270,0.00000120,-0.00000161,0.00020285,-0.0000
 0097,0.00000203,-0.00137174,-0.00030246,0.00052280,0.02430125,-0.01172
 167,-0.00430358,0.00000407,0.00077725,0.00294881,0.00000848,0.00081664
 ,0.00000311,-0.00000090,0.00117740,-0.00256005,0.00000093,-0.01202577,
 0.00388620,0.00001777,-0.34152728,-0.00040070,0.00022561,0.00007813,-0
 .00000084,-0.00000091,-0.00057455,0.00056185,0.00000168,-0.00008418,-0
 .00030243,-0.00000089,0.00002517,-0.00006486,0.00000003,-0.00003844,0.
 00002352,0.00000009,-0.00003391,-0.00002102,-0.00000004,-0.00001857,-0
 .00003004,0.00000001,0.00001418,0.00000051,-0.00000007,-0.00009549,-0.
 00001575,0.00000025,0.00000417,0.00002353,0.00000006,0.00089247,0.0004
 2647,-0.00000238,-0.00071472,-0.00013254,0.00000062,0.00109498,-0.0003
 9357,-0.00000491,0.36198768,0.03064306,0.00365898,-0.00002218,0.001915
 53,-0.00472079,-0.00001884,-0.00029639,-0.00103641,-0.00000089,-0.0014
 6595,-0.00469762,-0.00002001,-0.03123069,0.00263570,0.00002195,0.00022
 425,-0.06047560,-0.00003675,0.00016865,0.00026769,0.00000215,-0.001129
 19,0.00084434,0.00000167,-0.00018918,-0.00030719,0.00000055,0.00008709
 ,-0.00020505,-0.00000081,-0.00013960,-0.00002180,0.00000011,-0.0000319
 0,-0.00003574,0.00000005,-0.00005765,0.00005150,0.00000004,0.00011662,
 0.00001780,0.00000003,-0.00004538,0.00000713,-0.00000020,-0.00008289,0
 .00003045,0.00000006,-0.00063221,0.00101273,0.00000754,0.00141198,0.00
 002102,-0.00000172,0.00030403,0.00109812,0.00000938,0.00042465,0.06192
 687,0.00006244,0.00000322,0.00315720,0.00000673,-0.00001965,0.00584160
 ,-0.00000109,-0.00000074,-0.00030922,0.00000382,-0.00001899,0.00808785
 ,-0.00004068,-0.00000492,0.00343697,0.00022573,-0.00003502,-0.03794931
 ,-0.00000098,0.00000224,-0.00112654,-0.00000119,0.00000001,0.00037075,
 -0.00000069,0.00000062,-0.00057204,0.00000030,-0.00000046,0.00022399,-
 0.00000017,0.00000002,0.00000103,-0.00000007,0.00000005,-0.00004854,0.
 00000007,-0.00000005,0.00006196,0.,0.00000009,-0.00007041,0.00000021,-
 0.00000031,0.00020516,-0.00000010,-0.00000002,0.00003349,-0.00000427,0
 .00000664,-0.00327958,0.00000302,-0.00000039,0.00030343,-0.00000374,0.
 00000965,-0.00472925,-0.00024945,0.00005819,0.02628125,-0.00011691,-0.
 00032568,-0.00000126,-0.00067900,0.00052128,0.00000171,0.00140251,-0.0
 0268347,0.00000312,0.00045781,0.00013861,-0.00000012,0.00002861,0.0000
 2966,-0.00000097,0.00006507,-0.00007318,0.00000007,-0.01293790,0.00421
 079,0.00002301,0.00113070,0.00239342,0.00000647,-0.01266913,-0.0030197
 2,0.00000980,-0.33850340,0.00334681,0.00028228,0.00081117,-0.00181964,
 -0.00000631,0.00068518,0.00086161,0.00000117,0.00003188,0.00032029,0.0
 0000050,0.00031021,0.00006620,-0.00000027,-0.00071390,-0.00070076,-0.0
 0000043,0.00104542,-0.00047131,-0.00000695,-0.00009646,-0.00001066,0.0
 0000005,0.00001949,-0.00006298,0.00000009,-0.00000848,0.00002789,0.000
 00009,-0.00003647,-0.00000498,0.00000011,0.35983095,-0.00028004,-0.000
 31401,0.00000114,-0.00105060,0.00072338,0.00000152,-0.00109306,-0.0045
 3974,-0.00002198,-0.00029119,-0.00067321,-0.00000093,0.00011534,0.0002
 5696,0.00000210,0.00008749,-0.00017052,-0.00000079,-0.03144561,0.00348
 335,0.00002667,0.00078112,-0.00485168,-0.00001512,0.02993268,0.0012963
 7,-0.00003110,0.00405448,-0.05979931,-0.00003921,0.00187606,0.00157044
 ,0.00000539,-0.00096879,-0.00030674,-0.00000017,-0.00040006,0.00013851
 ,0.00000068,0.00003254,0.00015768,0.00000037,0.00141799,0.00036370,-0.
 00000097,0.00038267,0.00099912,0.00001065,-0.00014350,-0.00001141,0.00
 000011,0.00002324,-0.00003994,-0.00000045,-0.00006884,0.00001905,0.,-0
 .00001080,0.00001430,-0.00000012,-0.00309263,0.06209926,-0.00000088,0.
 00000118,-0.00086770,-0.00000092,0.,0.00031433,0.00000508,-0.00002017,
 0.00936883,-0.00000092,-0.00000100,0.00002102,-0.00000073,0.00000210,-
 0.00104969,0.00000027,-0.00000051,0.00026422,-0.00003659,-0.00000639,0
 .00465702,0.00000301,-0.00001688,0.00362079,0.00006536,-0.00000168,0.0
 0363624,0.00028395,-0.00003780,-0.03844505,0.00000012,0.00000876,-0.00
 259736,-0.00000196,-0.00000187,0.00031909,-0.00000077,0.00000004,-0.00
 004760,-0.00000029,0.00000028,-0.00007247,0.00000309,0.00000109,0.0001
 5602,-0.00000530,0.00001129,-0.00562663,-0.00000014,0.,-0.00000685,0.0
 0000020,-0.00000037,0.00022304,-0.00000008,-0.00000006,0.00003844,0.00
 000008,-0.00000012,0.00009204,-0.00031305,0.00006344,0.02580762,-0.000
 05925,0.00002006,0.00000008,0.00005572,0.00001772,0.,-0.00017563,-0.00
 004754,0.00000028,0.00006817,-0.00019653,-0.00000151,-0.00002470,0.000
 04857,0.00000013,0.00004545,-0.00007629,-0.00000023,0.00001496,0.00023
 296,-0.00000018,-0.00038174,0.00106374,0.00000204,-0.00109103,0.002939
 22,0.00001385,0.00053419,0.00030055,0.00000042,0.01122866,0.01623057,0
 .00002131,0.00096606,-0.00051430,-0.00000615,-0.14172768,-0.12761864,-
 0.00012595,-0.01251387,-0.02996364,-0.00003809,-0.00513679,0.00200678,
 0.00001420,0.00003362,0.00005725,0.00000005,0.00000048,-0.00001588,0.,
 0.00000504,-0.00001262,-0.00000002,0.00009113,-0.00001021,0.00000002,-
 0.00000950,-0.00000300,0.,0.00001209,-0.00000860,0.00000007,0.14778843
 ,0.00004227,-0.00002073,-0.00000007,-0.00007275,-0.00000748,0.,0.00021
 563,0.00003113,-0.00000053,0.00000341,0.00018892,0.00000238,-0.0000670
 5,-0.00007417,-0.00000021,-0.00003448,0.00005445,0.00000025,0.00026811
 ,-0.00047068,0.,0.00068883,0.00006726,-0.00000013,0.00410294,-0.002296
 35,-0.00002220,-0.00132591,-0.00046857,-0.00000033,-0.01900740,-0.0197
 6352,-0.00002316,0.00045199,0.00103800,0.00000951,-0.12716005,-0.26128
 231,-0.00027119,0.00495909,0.00471325,-0.00000177,0.00098884,0.0013976
 5,-0.00000883,-0.00007559,-0.00014149,-0.00000014,-0.00001293,-0.00001
 456,-0.00000006,0.00000893,-0.00000764,-0.00000003,0.00000357,0.000016
 25,-0.00000011,-0.00001902,-0.00000432,0.,0.00006844,-0.00001821,-0.00
 000027,0.13634095,0.27616349,0.00000017,-0.00000009,-0.00000057,-0.000
 00021,-0.00000010,0.00002626,0.00000068,-0.00000016,0.00021074,-0.0000
 0115,0.00000240,-0.00115719,0.,-0.00000042,0.00008333,-0.00000017,0.00
 000035,-0.00007519,0.,-0.00000004,-0.00057949,0.00000154,-0.00000051,-
 0.00023923,0.00001559,-0.00002125,0.00827026,-0.00000253,-0.00000192,0
 .00038123,-0.00004071,-0.00005580,0.00358513,-0.00000441,0.00001042,-0
 .00464738,-0.00012505,-0.00027112,-0.03824100,0.00002350,0.00003130,0.
 00304712,0.00001228,-0.00000982,0.00587492,-0.00000017,-0.00000029,-0.
 00000685,0.,-0.00000005,0.00002464,0.00000001,0.,0.00000308,-0.0000000
 4,-0.00000007,0.00007308,-0.00000003,0.,0.00000238,0.00000020,-0.00000
 018,0.00009847,0.00012435,0.00030949,0.02634293,0.00007246,-0.00001013
 ,-0.00000002,0.00002226,-0.00010791,-0.00000018,-0.00005775,-0.0001753
 8,-0.00000081,0.00077322,-0.00042562,-0.00000114,0.00001023,0.00000981
 ,0.00000027,-0.00003103,0.00009302,0.00000011,-0.00016487,-0.00001212,
 0.00000033,-0.00178783,-0.00301390,0.00000410,-0.00051924,-0.00099378,
 -0.00000149,0.00015825,0.00021047,-0.00000087,-0.00553894,-0.00138173,
 0.00000852,-0.00066143,0.00143980,0.00000331,-0.01044061,0.03131204,0.
 00006893,-0.12059175,0.11555882,0.00028645,0.01071368,-0.01935987,-0.0
 0004160,0.00000990,0.00001923,0.00000011,0.00000361,0.00000384,0.,-0.0
 0001364,-0.00002132,-0.00000007,-0.00005022,-0.00001053,-0.00000002,0.
 00000080,-0.00000861,-0.00000002,0.00004917,-0.00005940,-0.00000012,0.
 00107138,-0.00053879,-0.00000517,0.12583817,0.00001749,-0.00003953,-0.
 00000019,0.00005520,-0.00008249,-0.00000016,-0.00028864,-0.00033362,0.
 00000067,0.00126543,-0.00050342,-0.00000273,0.00003944,-0.00009859,-0.
 00000049,-0.00002309,0.00006301,0.00000025,-0.00016406,-0.00001501,-0.
 00000029,-0.00410800,-0.00173233,-0.00001358,-0.00069426,0.00029947,0.
 00000174,0.00004099,0.00018756,0.00000229,-0.00034844,0.00159533,-0.00
 000737,-0.00010472,-0.00003228,-0.00000052,-0.00363468,0.00237761,0.00
 000208,0.11493412,-0.28141034,-0.00054541,0.01575693,-0.02010333,-0.00
 005743,0.00001341,-0.00003207,-0.00000023,-0.00001218,-0.00001743,-0.0
 0000003,-0.00001044,-0.00005601,0.,-0.00003774,0.00000335,0.,-0.000038
 04,-0.00002355,-0.00000001,0.00004702,-0.00001456,-0.00000013,0.000519
 86,0.00083383,0.00000687,-0.12285251,0.29807551,-0.00000008,-0.0000001
 1,0.00006197,0.00000013,0.00000001,0.00000103,-0.00000106,0.00000057,-
 0.00057204,0.00000160,-0.00000137,0.00037075,0.00000024,-0.00000049,0.
 00020516,-0.00000007,0.00000002,-0.00007042,0.00000026,-0.00000032,0.0
 0022400,0.00000188,-0.00001369,0.00808795,-0.00000079,0.00000242,-0.00
 030922,-0.00000107,0.00000183,-0.00112655,0.00001035,-0.00000646,0.005
 84154,0.00000075,-0.00000204,0.00030342,0.00000563,-0.00003121,0.00315
 721,0.00028663,-0.00054615,-0.03795035,0.00002094,-0.00002441,0.003436
 89,0.00000010,-0.00000022,0.00009204,-0.00000002,-0.00000004,0.0000023
 8,-0.00000004,0.,-0.00004854,0.,0.00000002,-0.00001530,-0.00000007,-0.
 00000004,0.00000110,0.00000007,-0.00000002,0.00003349,-0.00000327,0.00
 000777,-0.00327951,-0.00031553,0.00060388,0.02628232,-0.00003956,-0.00
 009185,-0.00000004,0.00000901,-0.00008304,-0.00000007,-0.00007718,0.00
 021555,0.00000030,-0.00128783,-0.00084871,-0.00000313,-0.00081576,-0.0
 0153309,-0.00000334,0.00054596,-0.00036302,-0.00000134,-0.00003041,0.0
 0010335,-0.00000002,-0.01095039,-0.00098293,0.00001172,0.00134977,0.00
 218913,0.00000843,-0.00052174,-0.00058117,-0.00000026,0.00075469,-0.00
 001510,-0.00000089,-0.00015652,0.00000918,-0.00000122,0.00062858,-0.00
 321112,0.00000169,-0.01461365,0.00488644,0.00002697,-0.34077753,0.0206
 6141,0.00033972,0.00002995,0.00004795,0.00000009,0.00003501,-0.0000395
 0,0.,0.00001483,0.00001966,0.00000006,0.00041308,-0.00269551,-0.000003
 55,0.00001168,0.00002178,-0.00000002,-0.00011863,0.00020950,0.00000053
 ,-0.00079518,0.00017100,0.00000131,0.00113417,-0.00037310,-0.00000657,
 0.36525765,-0.00003896,0.00012715,0.00000009,-0.00007076,0.00019563,0.
 00000033,0.00002258,-0.00004305,0.00000014,-0.00051155,0.00107959,0.00
 000747,0.00073893,-0.00207730,-0.00000313,-0.00048707,0.00021582,0.000
 00139,0.00007075,0.00013372,0.00000050,0.03029358,0.00289423,-0.000030
 25,0.00094413,-0.00505795,-0.00002034,0.00140127,0.00048331,-0.0000008
 2,0.00001179,-0.00102086,-0.00000163,0.00003325,0.00018766,0.00000279,
 -0.00202540,-0.00420072,-0.00001959,-0.03084102,0.00406458,0.00002997,
 0.02164535,-0.06088416,-0.00006264,-0.00004878,-0.00001938,-0.00000006
 ,-0.00002573,0.00007237,0.,-0.00000618,0.00003829,0.,-0.00263051,-0.00
 236728,-0.00000660,-0.00000543,-0.00005854,-0.00000005,0.00023297,-0.0
 0038280,-0.00000093,-0.00131099,0.00006582,0.00000099,0.00032457,0.001
 05891,0.00001003,-0.01771680,0.06549497,0.00000028,0.00000012,0.000040
 34,-0.00000035,0.00000029,0.00006121,-0.00000012,0.00000017,-0.0000727
 1,-0.00000312,0.00000710,-0.00291167,0.00000253,-0.00000279,-0.0004590
 1,-0.00000173,0.00000179,-0.00029643,0.00000007,0.00000056,-0.00021308
 ,0.00006693,0.00000262,0.00329043,0.00000589,-0.00002115,0.00580759,0.
 00000332,0.00000099,0.00025276,-0.00000094,-0.00000187,-0.00014774,-0.
 00000106,0.00000270,-0.00137174,0.00000306,-0.00001848,0.00788962,-0.0
 0003682,-0.00000510,0.00418683,0.00034348,-0.00006287,-0.03775014,-0.0
 0000010,-0.00000015,0.00003844,-0.00000004,0.00000007,0.00007308,0.,0.
 ,0.00003030,-0.00000496,-0.00000561,0.00173024,-0.00000007,-0.00000015
 ,-0.00001530,0.00000059,-0.00000101,0.00006269,-0.00000140,-0.00000040
 ,0.00020285,-0.00000509,0.00001077,-0.00472932,-0.00037036,0.00009238,
 0.02430075\\0.00014101,-0.00008348,-0.00000119,-0.00008628,-0.00007196
 ,0.00000054,-0.00016959,0.00023881,0.00000083,0.00015609,-0.00015981,-
 0.00000054,-0.00014077,-0.00006423,0.00000014,0.00003677,0.00017402,0.
 00000086,0.00016382,0.00007512,-0.00000097,0.00021717,-0.00006619,-0.0
 0000005,-0.00029280,0.00003846,-0.00000068,0.00000912,-0.00017938,0.00
 000071,0.00002403,0.00011231,0.00000071,-0.00000538,-0.00002760,-0.000
 00030,0.00014187,-0.00008780,-0.00000017,-0.00014028,-0.00011492,-0.00
 000047,-0.00000816,0.00015800,0.00000057,-0.00004685,-0.00001912,0.000
 00103,-0.00002669,0.00002361,0.00000065,0.00002193,0.00001747,0.000000
 13,0.00002687,0.00001313,-0.00000156,-0.00000688,-0.00002823,-0.000000
 73,-0.00000472,0.00005020,-0.00000115,-0.00003354,0.00001297,-0.000000
 08,0.00002252,0.00001938,0.00000041,0.00000072,-0.00003077,0.00000129\
 \\@


 THE TRULY SUCCESSFUL PERFORMANCE OF RESEARCHES IN
 INORGANIC CHEMISTRY IS POSSIBLE ONLY TO ONE WHO IS NOT
 ONLY A THEORETICAL CHEMIST, BUT ALSO AN ACCOMPLISHED
 ANALYST AND, MOREOVER, NOT MERELY A PRACTICALLY TRAINED,
 MECHANICAL WORKER, BUT A THINKING CREATIVE ARTIST.
   --  CLEMENS WINKLER, BER. 33, 1697(1900)
 Job cpu time:       0 days  0 hours 22 minutes 44.2 seconds.
 Elapsed time:       0 days  0 hours  5 minutes 41.7 seconds.
 File lengths (MBytes):  RWF=     79 Int=      0 D2E=      0 Chk=      3 Scr=      1
 Normal termination of Gaussian 16 at Sat Jun 20 13:44:12 2020.
