 Entering Gaussian System, Link 0=g16
 Input=pyrene_opt.gjf
 Output=pyrene_opt.log
 Initial command:
 /home/qingchun/software/g16A_modified_by_qingchun/g16/l1.exe "/scratch/qingchun/gaussian/Gau-16430.inp" -scrdir="/scratch/qingchun/gaussian/"
 Entering Link 1 = /home/qingchun/software/g16A_modified_by_qingchun/g16/l1.exe PID=     16431.
  
 Copyright (c) 1988,1990,1992,1993,1995,1998,2003,2009,2016,
            Gaussian, Inc.  All Rights Reserved.
  
 This is part of the Gaussian(R) 16 program.  It is based on
 the Gaussian(R) 09 system (copyright 2009, Gaussian, Inc.),
 the Gaussian(R) 03 system (copyright 2003, Gaussian, Inc.),
 the Gaussian(R) 98 system (copyright 1998, Gaussian, Inc.),
 the Gaussian(R) 94 system (copyright 1995, Gaussian, Inc.),
 the Gaussian 92(TM) system (copyright 1992, Gaussian, Inc.),
 the Gaussian 90(TM) system (copyright 1990, Gaussian, Inc.),
 the Gaussian 88(TM) system (copyright 1988, Gaussian, Inc.),
 the Gaussian 86(TM) system (copyright 1986, Carnegie Mellon
 University), and the Gaussian 82(TM) system (copyright 1983,
 Carnegie Mellon University). Gaussian is a federally registered
 trademark of Gaussian, Inc.
  
 This software contains proprietary and confidential information,
 including trade secrets, belonging to Gaussian, Inc.
  
 This software is provided under written license and may be
 used, copied, transmitted, or stored only in accord with that
 written license.
  
 The following legend is applicable only to US Government
 contracts under FAR:
  
                    RESTRICTED RIGHTS LEGEND
  
 Use, reproduction and disclosure by the US Government is
 subject to restrictions as set forth in subparagraphs (a)
 and (c) of the Commercial Computer Software - Restricted
 Rights clause in FAR 52.227-19.
  
 Gaussian, Inc.
 340 Quinnipiac St., Bldg. 40, Wallingford CT 06492
  
  
 ---------------------------------------------------------------
 Warning -- This program may not be used in any manner that
 competes with the business of Gaussian, Inc. or will provide
 assistance to any competitor of Gaussian, Inc.  The licensee
 of this program is prohibited from giving any competitor of
 Gaussian, Inc. access to this program.  By using this program,
 the user acknowledges that Gaussian, Inc. is engaged in the
 business of creating and licensing software in the field of
 computational chemistry and represents and warrants to the
 licensee that it is not a competitor of Gaussian, Inc. and that
 it will not use this program in any manner prohibited above.
 ---------------------------------------------------------------
  

 Cite this work as:
 Gaussian 16, Revision A.03,
 M. J. Frisch, G. W. Trucks, H. B. Schlegel, G. E. Scuseria, 
 M. A. Robb, J. R. Cheeseman, G. Scalmani, V. Barone, 
 G. A. Petersson, H. Nakatsuji, X. Li, M. Caricato, A. V. Marenich, 
 J. Bloino, B. G. Janesko, R. Gomperts, B. Mennucci, H. P. Hratchian, 
 J. V. Ortiz, A. F. Izmaylov, J. L. Sonnenberg, D. Williams-Young, 
 F. Ding, F. Lipparini, F. Egidi, J. Goings, B. Peng, A. Petrone, 
 T. Henderson, D. Ranasinghe, V. G. Zakrzewski, J. Gao, N. Rega, 
 G. Zheng, W. Liang, M. Hada, M. Ehara, K. Toyota, R. Fukuda, 
 J. Hasegawa, M. Ishida, T. Nakajima, Y. Honda, O. Kitao, H. Nakai, 
 T. Vreven, K. Throssell, J. A. Montgomery, Jr., J. E. Peralta, 
 F. Ogliaro, M. J. Bearpark, J. J. Heyd, E. N. Brothers, K. N. Kudin, 
 V. N. Staroverov, T. A. Keith, R. Kobayashi, J. Normand, 
 K. Raghavachari, A. P. Rendell, J. C. Burant, S. S. Iyengar, 
 J. Tomasi, M. Cossi, J. M. Millam, M. Klene, C. Adamo, R. Cammi, 
 J. W. Ochterski, R. L. Martin, K. Morokuma, O. Farkas, 
 J. B. Foresman, and D. J. Fox, Gaussian, Inc., Wallingford CT, 2016.
 
 ******************************************
 Gaussian 16:  ES64L-G16RevA.03 25-Dec-2016
                21-Jun-2020 
 ******************************************
 %nprocshared=4
 Will use up to    4 processors via shared memory.
 %mem=30GB
 %chk=pyrene_opt.chk
 ----------------------
 # opt freq b3lyp/6-31G
 ----------------------
 1/18=20,19=15,26=3,38=1/1,3;
 2/9=110,12=2,17=6,18=5,40=1/2;
 3/5=1,6=6,11=2,25=1,30=1,71=1,74=-5/1,2,3;
 4//1;
 5/5=2,38=5/2;
 6/7=2,8=2,9=2,10=2,28=1/1;
 7//1,2,3,16;
 1/18=20,19=15,26=3/3(2);
 2/9=110/2;
 99//99;
 2/9=110/2;
 3/5=1,6=6,11=2,25=1,30=1,71=1,74=-5/1,2,3;
 4/5=5,16=3,69=1/1;
 5/5=2,38=5/2;
 7//1,2,3,16;
 1/18=20,19=15,26=3/3(-5);
 2/9=110/2;
 6/7=2,8=2,9=2,10=2,19=2,28=1/1;
 99/9=1/99;
 -------------------
 Title Card Required
 -------------------
 Symbolic Z-matrix:
 Charge =  0 Multiplicity = 1
 C                    -5.70268  -2.86596  -0.02727 
 C                    -4.30983  -2.86596  -0.02727 
 C                    -3.60137  -1.65747  -0.02727 
 C                    -4.31848  -0.43286  -0.02723 
 C                    -5.73761  -0.4422   -0.0272 
 C                    -6.41442  -1.66862  -0.0273 
 C                    -2.16231  -1.61539  -0.0272 
 C                    -3.60969   0.81294  -0.02701 
 C                    -2.1906    0.82226  -0.02698 
 C                    -1.49149  -0.43626  -0.02711 
 C                    -1.51376   2.04875  -0.02682 
 H                    -0.41358   2.06162  -0.02685 
 C                    -2.22548   3.24603  -0.02667 
 C                    -3.6184    3.24603  -0.02664 
 C                    -4.32683   2.03759  -0.02685 
 C                    -5.76591   1.99546  -0.02706 
 C                    -6.43673   0.81634  -0.02721 
 H                    -7.5373    0.78829  -0.02774 
 H                    -6.30422   2.95581  -0.02698 
 H                    -1.62415  -2.57579  -0.0275 
 H                    -6.24689  -3.82244  -0.02753 
 H                    -3.75878  -3.81824  -0.02736 
 H                    -7.51458  -1.68145  -0.02768 
 H                    -0.39094  -0.40831  -0.0274 
 H                    -1.68136   4.20259  -0.02669 
 H                    -4.16938   4.19839  -0.02662 
 

 GradGradGradGradGradGradGradGradGradGradGradGradGradGradGradGradGradGrad
 Berny optimization.
 Initialization pass.
                           ----------------------------
                           !    Initial Parameters    !
                           ! (Angstroms and Degrees)  !
 --------------------------                            --------------------------
 ! Name  Definition              Value          Derivative Info.                !
 --------------------------------------------------------------------------------
 ! R1    R(1,2)                  1.3928         estimate D2E/DX2                !
 ! R2    R(1,6)                  1.3929         estimate D2E/DX2                !
 ! R3    R(1,21)                 1.1005         estimate D2E/DX2                !
 ! R4    R(2,3)                  1.4008         estimate D2E/DX2                !
 ! R5    R(2,22)                 1.1002         estimate D2E/DX2                !
 ! R6    R(3,4)                  1.4191         estimate D2E/DX2                !
 ! R7    R(3,7)                  1.4397         estimate D2E/DX2                !
 ! R8    R(4,5)                  1.4192         estimate D2E/DX2                !
 ! R9    R(4,8)                  1.4333         estimate D2E/DX2                !
 ! R10   R(5,6)                  1.4008         estimate D2E/DX2                !
 ! R11   R(5,17)                 1.4397         estimate D2E/DX2                !
 ! R12   R(6,23)                 1.1002         estimate D2E/DX2                !
 ! R13   R(7,10)                 1.3566         estimate D2E/DX2                !
 ! R14   R(7,20)                 1.1009         estimate D2E/DX2                !
 ! R15   R(8,9)                  1.4191         estimate D2E/DX2                !
 ! R16   R(8,15)                 1.4192         estimate D2E/DX2                !
 ! R17   R(9,10)                 1.4397         estimate D2E/DX2                !
 ! R18   R(9,11)                 1.4009         estimate D2E/DX2                !
 ! R19   R(10,24)                1.1009         estimate D2E/DX2                !
 ! R20   R(11,12)                1.1003         estimate D2E/DX2                !
 ! R21   R(11,13)                1.3928         estimate D2E/DX2                !
 ! R22   R(13,14)                1.3929         estimate D2E/DX2                !
 ! R23   R(13,25)                1.1005         estimate D2E/DX2                !
 ! R24   R(14,15)                1.4008         estimate D2E/DX2                !
 ! R25   R(14,26)                1.1003         estimate D2E/DX2                !
 ! R26   R(15,16)                1.4397         estimate D2E/DX2                !
 ! R27   R(16,17)                1.3566         estimate D2E/DX2                !
 ! R28   R(16,19)                1.1009         estimate D2E/DX2                !
 ! R29   R(17,18)                1.1009         estimate D2E/DX2                !
 ! A1    A(2,1,6)              120.7289         estimate D2E/DX2                !
 ! A2    A(2,1,21)             119.6389         estimate D2E/DX2                !
 ! A3    A(6,1,21)             119.6321         estimate D2E/DX2                !
 ! A4    A(1,2,3)              120.3806         estimate D2E/DX2                !
 ! A5    A(1,2,22)             120.0564         estimate D2E/DX2                !
 ! A6    A(3,2,22)             119.563          estimate D2E/DX2                !
 ! A7    A(2,3,4)              119.2668         estimate D2E/DX2                !
 ! A8    A(2,3,7)              122.0556         estimate D2E/DX2                !
 ! A9    A(4,3,7)              118.6776         estimate D2E/DX2                !
 ! A10   A(3,4,5)              119.9757         estimate D2E/DX2                !
 ! A11   A(3,4,8)              120.0102         estimate D2E/DX2                !
 ! A12   A(5,4,8)              120.0141         estimate D2E/DX2                !
 ! A13   A(4,5,6)              119.2694         estimate D2E/DX2                !
 ! A14   A(4,5,17)             118.6751         estimate D2E/DX2                !
 ! A15   A(6,5,17)             122.0555         estimate D2E/DX2                !
 ! A16   A(1,6,5)              120.3786         estimate D2E/DX2                !
 ! A17   A(1,6,23)             120.0607         estimate D2E/DX2                !
 ! A18   A(5,6,23)             119.5608         estimate D2E/DX2                !
 ! A19   A(3,7,10)             121.3111         estimate D2E/DX2                !
 ! A20   A(3,7,20)             117.5892         estimate D2E/DX2                !
 ! A21   A(10,7,20)            121.0997         estimate D2E/DX2                !
 ! A22   A(4,8,9)              120.0136         estimate D2E/DX2                !
 ! A23   A(4,8,15)             120.0103         estimate D2E/DX2                !
 ! A24   A(9,8,15)             119.9761         estimate D2E/DX2                !
 ! A25   A(8,9,10)             118.6761         estimate D2E/DX2                !
 ! A26   A(8,9,11)             119.2687         estimate D2E/DX2                !
 ! A27   A(10,9,11)            122.0552         estimate D2E/DX2                !
 ! A28   A(7,10,9)             121.3114         estimate D2E/DX2                !
 ! A29   A(7,10,24)            121.0906         estimate D2E/DX2                !
 ! A30   A(9,10,24)            117.598          estimate D2E/DX2                !
 ! A31   A(9,11,12)            119.5624         estimate D2E/DX2                !
 ! A32   A(9,11,13)            120.3782         estimate D2E/DX2                !
 ! A33   A(12,11,13)           120.0594         estimate D2E/DX2                !
 ! A34   A(11,13,14)           120.7296         estimate D2E/DX2                !
 ! A35   A(11,13,25)           119.6379         estimate D2E/DX2                !
 ! A36   A(14,13,25)           119.6326         estimate D2E/DX2                !
 ! A37   A(13,14,15)           120.3803         estimate D2E/DX2                !
 ! A38   A(13,14,26)           120.0511         estimate D2E/DX2                !
 ! A39   A(15,14,26)           119.5687         estimate D2E/DX2                !
 ! A40   A(8,15,14)            119.2672         estimate D2E/DX2                !
 ! A41   A(8,15,16)            118.6757         estimate D2E/DX2                !
 ! A42   A(14,15,16)           122.0571         estimate D2E/DX2                !
 ! A43   A(15,16,17)           121.313          estimate D2E/DX2                !
 ! A44   A(15,16,19)           117.5952         estimate D2E/DX2                !
 ! A45   A(17,16,19)           121.0918         estimate D2E/DX2                !
 ! A46   A(5,17,16)            121.3118         estimate D2E/DX2                !
 ! A47   A(5,17,18)            117.5918         estimate D2E/DX2                !
 ! A48   A(16,17,18)           121.0963         estimate D2E/DX2                !
 ! D1    D(6,1,2,3)              0.0017         estimate D2E/DX2                !
 ! D2    D(6,1,2,22)          -179.9927         estimate D2E/DX2                !
 ! D3    D(21,1,2,3)           179.9842         estimate D2E/DX2                !
 ! D4    D(21,1,2,22)           -0.0101         estimate D2E/DX2                !
 ! D5    D(2,1,6,5)             -0.0066         estimate D2E/DX2                !
 ! D6    D(2,1,6,23)           179.9771         estimate D2E/DX2                !
 ! D7    D(21,1,6,5)          -179.9892         estimate D2E/DX2                !
 ! D8    D(21,1,6,23)           -0.0055         estimate D2E/DX2                !
 ! D9    D(1,2,3,4)              0.0018         estimate D2E/DX2                !
 ! D10   D(1,2,3,7)            179.9969         estimate D2E/DX2                !
 ! D11   D(22,2,3,4)           179.9961         estimate D2E/DX2                !
 ! D12   D(22,2,3,7)            -0.0087         estimate D2E/DX2                !
 ! D13   D(2,3,4,5)             -0.0003         estimate D2E/DX2                !
 ! D14   D(2,3,4,8)            179.9899         estimate D2E/DX2                !
 ! D15   D(7,3,4,5)           -179.9957         estimate D2E/DX2                !
 ! D16   D(7,3,4,8)             -0.0054         estimate D2E/DX2                !
 ! D17   D(2,3,7,10)          -179.9956         estimate D2E/DX2                !
 ! D18   D(2,3,7,20)             0.0204         estimate D2E/DX2                !
 ! D19   D(4,3,7,10)            -0.0003         estimate D2E/DX2                !
 ! D20   D(4,3,7,20)          -179.9844         estimate D2E/DX2                !
 ! D21   D(3,4,5,6)             -0.0044         estimate D2E/DX2                !
 ! D22   D(3,4,5,17)          -179.9976         estimate D2E/DX2                !
 ! D23   D(8,4,5,6)           -179.9947         estimate D2E/DX2                !
 ! D24   D(8,4,5,17)             0.0121         estimate D2E/DX2                !
 ! D25   D(3,4,8,9)              0.0067         estimate D2E/DX2                !
 ! D26   D(3,4,8,15)          -179.9942         estimate D2E/DX2                !
 ! D27   D(5,4,8,9)            179.997          estimate D2E/DX2                !
 ! D28   D(5,4,8,15)            -0.004          estimate D2E/DX2                !
 ! D29   D(4,5,6,1)              0.0079         estimate D2E/DX2                !
 ! D30   D(4,5,6,23)          -179.9759         estimate D2E/DX2                !
 ! D31   D(17,5,6,1)          -179.9992         estimate D2E/DX2                !
 ! D32   D(17,5,6,23)            0.0171         estimate D2E/DX2                !
 ! D33   D(4,5,17,16)           -0.0097         estimate D2E/DX2                !
 ! D34   D(4,5,17,18)          179.9679         estimate D2E/DX2                !
 ! D35   D(6,5,17,16)          179.9973         estimate D2E/DX2                !
 ! D36   D(6,5,17,18)           -0.0251         estimate D2E/DX2                !
 ! D37   D(3,7,10,9)             0.0049         estimate D2E/DX2                !
 ! D38   D(3,7,10,24)         -179.9795         estimate D2E/DX2                !
 ! D39   D(20,7,10,9)          179.9884         estimate D2E/DX2                !
 ! D40   D(20,7,10,24)           0.004          estimate D2E/DX2                !
 ! D41   D(4,8,9,10)            -0.0023         estimate D2E/DX2                !
 ! D42   D(4,8,9,11)           179.9973         estimate D2E/DX2                !
 ! D43   D(15,8,9,10)          179.9987         estimate D2E/DX2                !
 ! D44   D(15,8,9,11)           -0.0018         estimate D2E/DX2                !
 ! D45   D(4,8,15,14)         -179.9998         estimate D2E/DX2                !
 ! D46   D(4,8,15,16)           -0.0068         estimate D2E/DX2                !
 ! D47   D(9,8,15,14)           -0.0007         estimate D2E/DX2                !
 ! D48   D(9,8,15,16)          179.9923         estimate D2E/DX2                !
 ! D49   D(8,9,10,7)            -0.0036         estimate D2E/DX2                !
 ! D50   D(8,9,10,24)          179.9814         estimate D2E/DX2                !
 ! D51   D(11,9,10,7)          179.9969         estimate D2E/DX2                !
 ! D52   D(11,9,10,24)          -0.0181         estimate D2E/DX2                !
 ! D53   D(8,9,11,12)         -179.9964         estimate D2E/DX2                !
 ! D54   D(8,9,11,13)            0.0015         estimate D2E/DX2                !
 ! D55   D(10,9,11,12)           0.0031         estimate D2E/DX2                !
 ! D56   D(10,9,11,13)        -179.999          estimate D2E/DX2                !
 ! D57   D(9,11,13,14)           0.0014         estimate D2E/DX2                !
 ! D58   D(9,11,13,25)        -179.9912         estimate D2E/DX2                !
 ! D59   D(12,11,13,14)        179.9993         estimate D2E/DX2                !
 ! D60   D(12,11,13,25)          0.0067         estimate D2E/DX2                !
 ! D61   D(11,13,14,15)         -0.0039         estimate D2E/DX2                !
 ! D62   D(11,13,14,26)       -179.9939         estimate D2E/DX2                !
 ! D63   D(25,13,14,15)        179.9886         estimate D2E/DX2                !
 ! D64   D(25,13,14,26)         -0.0013         estimate D2E/DX2                !
 ! D65   D(13,14,15,8)           0.0035         estimate D2E/DX2                !
 ! D66   D(13,14,15,16)       -179.9892         estimate D2E/DX2                !
 ! D67   D(26,14,15,8)         179.9935         estimate D2E/DX2                !
 ! D68   D(26,14,15,16)          0.0008         estimate D2E/DX2                !
 ! D69   D(8,15,16,17)           0.0094         estimate D2E/DX2                !
 ! D70   D(8,15,16,19)        -179.9972         estimate D2E/DX2                !
 ! D71   D(14,15,16,17)       -179.9978         estimate D2E/DX2                !
 ! D72   D(14,15,16,19)         -0.0044         estimate D2E/DX2                !
 ! D73   D(15,16,17,5)          -0.0012         estimate D2E/DX2                !
 ! D74   D(15,16,17,18)       -179.978          estimate D2E/DX2                !
 ! D75   D(19,16,17,5)        -179.9943         estimate D2E/DX2                !
 ! D76   D(19,16,17,18)          0.0289         estimate D2E/DX2                !
 --------------------------------------------------------------------------------
 Trust Radius=3.00D-01 FncErr=1.00D-07 GrdErr=1.00D-06 EigMax=2.50D+02 EigMin=1.00D-04
 Number of steps in this run=    156 maximum allowed number of steps=    156.
 GradGradGradGradGradGradGradGradGradGradGradGradGradGradGradGradGradGrad

                          Input orientation:                          
 ---------------------------------------------------------------------
 Center     Atomic      Atomic             Coordinates (Angstroms)
 Number     Number       Type             X           Y           Z
 ---------------------------------------------------------------------
      1          6           0       -5.702676   -2.865958   -0.027269
      2          6           0       -4.309828   -2.865958   -0.027269
      3          6           0       -3.601365   -1.657473   -0.027269
      4          6           0       -4.318478   -0.432864   -0.027231
      5          6           0       -5.737612   -0.442200   -0.027201
      6          6           0       -6.414422   -1.668618   -0.027304
      7          6           0       -2.162310   -1.615391   -0.027204
      8          6           0       -3.609692    0.812941   -0.027012
      9          6           0       -2.190604    0.822264   -0.026977
     10          6           0       -1.491486   -0.436257   -0.027115
     11          6           0       -1.513761    2.048754   -0.026820
     12          1           0       -0.413580    2.061622   -0.026852
     13          6           0       -2.225484    3.246025   -0.026669
     14          6           0       -3.618399    3.246025   -0.026642
     15          6           0       -4.326825    2.037589   -0.026850
     16          6           0       -5.765912    1.995460   -0.027060
     17          6           0       -6.436728    0.816342   -0.027215
     18          1           0       -7.537296    0.788288   -0.027738
     19          1           0       -6.304219    2.955808   -0.026978
     20          1           0       -1.624147   -2.575791   -0.027500
     21          1           0       -6.246894   -3.822441   -0.027532
     22          1           0       -3.758775   -3.818244   -0.027363
     23          1           0       -7.514579   -1.681450   -0.027684
     24          1           0       -0.390937   -0.408312   -0.027402
     25          1           0       -1.681359    4.202592   -0.026694
     26          1           0       -4.169377    4.198386   -0.026624
 ---------------------------------------------------------------------
                    Distance matrix (angstroms):
                    1          2          3          4          5
     1  C    0.000000
     2  C    1.392848   0.000000
     3  C    2.424035   1.400841   0.000000
     4  C    2.799277   2.433109   1.419126   0.000000
     5  C    2.424010   2.813036   2.457731   1.419165   0.000000
     6  C    1.392913   2.421351   2.813079   2.433119   1.400776
     7  C    3.754745   2.485106   1.439670   2.459152   3.762866
     8  C    4.232597   3.744928   2.470428   1.433321   2.470511
     9  C    5.092900   4.253715   2.852953   2.470464   3.765652
    10  C    4.861848   3.721088   2.437818   2.826994   4.246130
    11  C    6.457662   5.654413   4.253729   3.744979   4.903649
    12  H    7.228802   6.281862   4.898330   4.633647   5.883404
    13  C    7.031870   6.457618   5.092872   4.232594   5.092941
    14  C    6.457596   6.150968   4.903528   3.744908   4.253712
    15  C    5.092911   4.903576   3.765604   2.470467   2.853011
    16  C    4.861829   5.074797   4.246079   2.826981   2.437824
    17  C    3.754752   4.252415   3.762851   2.459166   1.439684
    18  H    4.088930   4.875455   4.633929   3.442674   2.180129
    19  H    5.852761   6.153906   5.346754   3.927628   3.444924
    20  H    4.088838   2.701311   2.180069   3.442609   4.633876
    21  H    1.100469   2.160344   3.418466   3.899746   3.418391
    22  H    2.164625   1.100231   2.166497   3.431336   3.913243
    23  H    2.164729   3.416649   3.913287   3.431330   2.166415
    24  H    5.852743   4.625768   3.444888   3.927618   5.346782
    25  H    8.132367   7.541435   6.166586   5.333090   6.166626
    26  H    7.228829   7.065740   5.883343   4.633650   4.898408
                    6          7          8          9         10
     6  C    0.000000
     7  C    4.252445   0.000000
     8  C    3.744949   2.826961   0.000000
     9  C    4.903584   2.437819   1.419119   0.000000
    10  C    5.074841   1.356599   2.459124   1.439667   0.000000
    11  C    6.151043   3.721099   2.433138   1.400855   2.485111
    12  H    7.065748   4.071668   3.431375   2.166523   2.720530
    13  C    6.457625   4.861826   2.799273   2.424012   3.754724
    14  C    5.654331   5.074797   2.433100   2.813044   4.252406
    15  C    4.253708   4.246103   1.419170   2.457734   3.762853
    16  C    3.721026   5.101391   2.459194   3.762873   4.917720
    17  C    2.485060   4.917720   2.827038   4.246128   5.101414
    18  H    2.701339   5.887966   3.927681   5.346800   6.168576
    19  H    4.625739   6.168571   3.442725   4.633987   5.887997
    20  H    4.875418   1.100903   3.927581   3.444946   2.143643
    21  H    2.160328   4.642725   5.333067   6.166585   5.837820
    22  H    3.416629   2.720526   4.633584   4.898313   4.071663
    23  H    1.100232   5.352677   4.633587   5.883306   6.150460
    24  H    6.153921   2.143549   3.442651   2.180165   1.100904
    25  H    7.541418   5.837828   3.899770   3.418472   4.642733
    26  H    6.281876   6.150473   3.431397   3.913278   5.352664
                   11         12         13         14         15
    11  C    0.000000
    12  H    1.100256   0.000000
    13  C    1.392842   2.164672   0.000000
    14  C    2.421355   3.416676   1.392915   0.000000
    15  C    2.813086   3.913319   2.424036   1.400780   0.000000
    16  C    4.252485   5.352741   3.754803   2.485101   1.439704
    17  C    5.074884   6.150531   4.861886   3.721067   2.437855
    18  H    6.154003   7.236623   5.852847   4.625822   3.444979
    19  H    4.875575   5.958120   4.089047   2.701454   2.180187
    20  H    4.625862   4.792815   5.852790   6.153908   5.346751
    21  H    7.541451   8.285514   8.132340   7.541366   6.166573
    22  H    6.281859   6.764847   7.228754   7.065664   5.883321
    23  H    7.065709   8.027127   7.228730   6.281738   4.898268
    24  H    2.701464   2.470038   4.088978   4.875520   4.633967
    25  H    2.160349   2.488175   1.100496   2.160357   3.418439
    26  H    3.416609   4.321085   2.164650   1.100258   2.166526
                   16         17         18         19         20
    16  C    0.000000
    17  C    1.356582   0.000000
    18  H    2.143610   1.100926   0.000000
    19  H    1.100928   2.143566   2.493717   0.000000
    20  H    6.168513   5.887912   6.803114   7.245803   0.000000
    21  H    5.837749   4.642666   4.787897   6.778491   4.787894
    22  H    6.150427   5.352646   5.957966   7.236509   2.469884
    23  H    4.071548   2.720428   2.469842   4.792612   5.957939
    24  H    5.887994   6.168579   7.245847   6.803250   2.493747
    25  H    4.642737   5.837827   6.778604   4.788038   6.778624
    26  H    2.720626   4.071744   4.792875   2.470132   7.236551
                   21         22         23         24         25
    21  H    0.000000
    22  H    2.488123   0.000000
    23  H    2.488145   4.321105   0.000000
    24  H    6.778533   4.792700   7.236515   0.000000
    25  H    9.232836   8.285497   8.285433   4.788071   0.000000
    26  H    8.285514   8.027138   6.764824   5.958043   2.488022
                   26
    26  H    0.000000
 Stoichiometry    C16H10
 Framework group  C1[X(C16H10)]
 Deg. of freedom    72
 Full point group                 C1      NOp   1
 Largest Abelian subgroup         C1      NOp   1
 Largest concise Abelian subgroup C1      NOp   1
                         Standard orientation:                         
 ---------------------------------------------------------------------
 Center     Atomic      Atomic             Coordinates (Angstroms)
 Number     Number       Type             X           Y           Z
 ---------------------------------------------------------------------
      1          6           0        3.515933   -0.000074    0.000184
      2          6           0        2.827166   -1.210704    0.000184
      3          6           0        1.426443   -1.228883    0.000184
      4          6           0        0.716656   -0.000013    0.000146
      5          6           0        1.426537    1.228847    0.000116
      6          6           0        2.827195    1.210647    0.000219
      7          6           0        0.678249   -2.458865    0.000119
      8          6           0       -0.716664   -0.000018   -0.000073
      9          6           0       -1.426511   -1.228845   -0.000108
     10          6           0       -0.678351   -2.458844    0.000030
     11          6           0       -2.827247   -1.210638   -0.000265
     12          1           0       -3.382475   -2.160525   -0.000233
     13          6           0       -3.515937    0.000029   -0.000416
     14          6           0       -2.827137    1.210717   -0.000443
     15          6           0       -1.426474    1.228888   -0.000235
     16          6           0       -0.678224    2.458875   -0.000025
     17          6           0        0.678358    2.458855    0.000130
     18          1           0        1.246976    3.401570    0.000653
     19          1           0       -1.246741    3.401654   -0.000107
     20          1           0        1.246882   -3.401544    0.000415
     21          1           0        4.616403   -0.000036    0.000447
     22          1           0        3.382372   -2.160574    0.000278
     23          1           0        3.382379    2.160532    0.000599
     24          1           0       -1.246864   -3.401596    0.000317
     25          1           0       -4.616434    0.000114   -0.000391
     26          1           0       -3.382446    2.160559   -0.000461
 ---------------------------------------------------------------------
 Rotational constants (GHZ):           1.0137754           0.5567225           0.3593711
 Standard basis: 6-31G (6D, 7F)
 There are   164 symmetry adapted cartesian basis functions of A   symmetry.
 There are   164 symmetry adapted basis functions of A   symmetry.
   164 basis functions,   392 primitive gaussians,   164 cartesian basis functions
    53 alpha electrons       53 beta electrons
       nuclear repulsion energy       966.5738932845 Hartrees.
 NAtoms=   26 NActive=   26 NUniq=   26 SFac= 1.00D+00 NAtFMM=   60 NAOKFM=F Big=F
 Integral buffers will be    131072 words long.
 Raffenetti 2 integral format.
 Two-electron integral symmetry is turned on.
 One-electron integrals computed using PRISM.
 NBasis=   164 RedAO= T EigKep=  2.22D-04  NBF=   164
 NBsUse=   164 1.00D-06 EigRej= -1.00D+00 NBFU=   164
 ExpMin= 1.61D-01 ExpMax= 3.05D+03 ExpMxC= 4.57D+02 IAcc=3 IRadAn=         5 AccDes= 0.00D+00
 Harris functional with IExCor=  402 and IRadAn=       5 diagonalized for initial guess.
 HarFok:  IExCor=  402 AccDes= 0.00D+00 IRadAn=         5 IDoV= 1 UseB2=F ITyADJ=14
 ICtDFT=  3500011 ScaDFX=  1.000000  1.000000  1.000000  1.000000
 FoFCou: FMM=F IPFlag=           0 FMFlag=      100000 FMFlg1=           0
         NFxFlg=           0 DoJE=T BraDBF=F KetDBF=T FulRan=T
         wScrn=  0.000000 ICntrl=       500 IOpCl=  0 I1Cent=   200000004 NGrid=           0
         NMat0=    1 NMatS0=      1 NMatT0=    0 NMatD0=    1 NMtDS0=    0 NMtDT0=    0
 Petite list used in FoFCou.
 Keep R1 ints in memory in canonical form, NReq=95507385.
 Requested convergence on RMS density matrix=1.00D-08 within 128 cycles.
 Requested convergence on MAX density matrix=1.00D-06.
 Requested convergence on             energy=1.00D-06.
 No special actions if energy rises.
 Integral accuracy reduced to 1.0D-05 until final iterations.
 Initial convergence to 1.0D-05 achieved.  Increase integral accuracy.
 SCF Done:  E(RB3LYP) =  -615.632505793     A.U. after   13 cycles
            NFock= 13  Conv=0.74D-08     -V/T= 2.0053

 **********************************************************************

            Population analysis using the SCF density.

 **********************************************************************

 Orbital symmetries:
       Occupied  (A) (A) (A) (A) (A) (A) (A) (A) (A) (A) (A) (A)
                 (A) (A) (A) (A) (A) (A) (A) (A) (A) (A) (A) (A)
                 (A) (A) (A) (A) (A) (A) (A) (A) (A) (A) (A) (A)
                 (A) (A) (A) (A) (A) (A) (A) (A) (A) (A) (A) (A)
                 (A) (A) (A) (A) (A)
       Virtual   (A) (A) (A) (A) (A) (A) (A) (A) (A) (A) (A) (A)
                 (A) (A) (A) (A) (A) (A) (A) (A) (A) (A) (A) (A)
                 (A) (A) (A) (A) (A) (A) (A) (A) (A) (A) (A) (A)
                 (A) (A) (A) (A) (A) (A) (A) (A) (A) (A) (A) (A)
                 (A) (A) (A) (A) (A) (A) (A) (A) (A) (A) (A) (A)
                 (A) (A) (A) (A) (A) (A) (A) (A) (A) (A) (A) (A)
                 (A) (A) (A) (A) (A) (A) (A) (A) (A) (A) (A) (A)
                 (A) (A) (A) (A) (A) (A) (A) (A) (A) (A) (A) (A)
                 (A) (A) (A) (A) (A) (A) (A) (A) (A) (A) (A) (A)
                 (A) (A) (A)
 The electronic state is 1-A.
 Alpha  occ. eigenvalues --  -10.19584 -10.19584 -10.19578 -10.19577 -10.19476
 Alpha  occ. eigenvalues --  -10.19446 -10.19019 -10.19019 -10.18955 -10.18955
 Alpha  occ. eigenvalues --  -10.18938 -10.18938 -10.18834 -10.18834 -10.18825
 Alpha  occ. eigenvalues --  -10.18824  -0.89763  -0.85596  -0.83393  -0.80002
 Alpha  occ. eigenvalues --   -0.76904  -0.75034  -0.73286  -0.71243  -0.62971
 Alpha  occ. eigenvalues --   -0.62824  -0.62651  -0.61094  -0.54431  -0.52644
 Alpha  occ. eigenvalues --   -0.51796  -0.50575  -0.48986  -0.47104  -0.44049
 Alpha  occ. eigenvalues --   -0.43742  -0.43657  -0.41925  -0.41368  -0.40061
 Alpha  occ. eigenvalues --   -0.39752  -0.39046  -0.36600  -0.36493  -0.36377
 Alpha  occ. eigenvalues --   -0.34256  -0.32919  -0.31942  -0.29723  -0.27422
 Alpha  occ. eigenvalues --   -0.25582  -0.23151  -0.19795
 Alpha virt. eigenvalues --   -0.05324  -0.01955   0.00043   0.02438   0.06071
 Alpha virt. eigenvalues --    0.08996   0.10441   0.11225   0.11544   0.12986
 Alpha virt. eigenvalues --    0.14652   0.15410   0.15448   0.16043   0.18318
 Alpha virt. eigenvalues --    0.19283   0.19637   0.24564   0.25197   0.25878
 Alpha virt. eigenvalues --    0.26169   0.28847   0.30104   0.31615   0.32158
 Alpha virt. eigenvalues --    0.33505   0.34542   0.35979   0.36237   0.46238
 Alpha virt. eigenvalues --    0.47684   0.47988   0.49980   0.50062   0.50814
 Alpha virt. eigenvalues --    0.51866   0.52865   0.54062   0.56718   0.56889
 Alpha virt. eigenvalues --    0.57328   0.57658   0.58201   0.58332   0.60626
 Alpha virt. eigenvalues --    0.61089   0.61986   0.62040   0.62430   0.62710
 Alpha virt. eigenvalues --    0.63296   0.63808   0.64081   0.64255   0.65434
 Alpha virt. eigenvalues --    0.65893   0.66659   0.67092   0.68382   0.68970
 Alpha virt. eigenvalues --    0.69327   0.71486   0.72057   0.76307   0.80284
 Alpha virt. eigenvalues --    0.82678   0.82888   0.82936   0.82948   0.84692
 Alpha virt. eigenvalues --    0.84842   0.86764   0.86919   0.90206   0.90397
 Alpha virt. eigenvalues --    0.93028   0.94497   0.94509   0.98594   0.99294
 Alpha virt. eigenvalues --    1.00120   1.00718   1.01434   1.04754   1.05011
 Alpha virt. eigenvalues --    1.07877   1.10847   1.11106   1.12231   1.16309
 Alpha virt. eigenvalues --    1.16700   1.21666   1.22529   1.25773   1.28152
 Alpha virt. eigenvalues --    1.28781   1.31617   1.35525   1.35760   1.48515
 Alpha virt. eigenvalues --    1.49872   1.50808   1.51656   1.54610   1.59044
 Alpha virt. eigenvalues --    1.59529   1.63015   1.95420   1.95858   1.98883
 Alpha virt. eigenvalues --    1.99658
          Condensed to atoms (all electrons):
               1          2          3          4          5          6
     1  C    4.951126   0.484835  -0.025389  -0.035452  -0.025393   0.484782
     2  C    0.484835   5.082218   0.465856  -0.040888  -0.044471  -0.049881
     3  C   -0.025389   0.465856   4.896372   0.421899  -0.056154  -0.044480
     4  C   -0.035452  -0.040888   0.421899   5.221442   0.421883  -0.040892
     5  C   -0.025393  -0.044471  -0.056154   0.421883   4.896272   0.465916
     6  C    0.484782  -0.049881  -0.044480  -0.040892   0.465916   5.082268
     7  C    0.006326  -0.052871   0.410021  -0.027587   0.009952   0.000454
     8  C   -0.000927   0.013811  -0.051527   0.284951  -0.051511   0.013812
     9  C    0.000020   0.000392  -0.022851  -0.051536   0.008971  -0.000250
    10  C   -0.000420   0.007892  -0.029586  -0.048265  -0.000177   0.000046
    11  C    0.000000  -0.000010   0.000392   0.013809  -0.000250  -0.000001
    12  H    0.000000   0.000000   0.000029  -0.000279   0.000002   0.000000
    13  C    0.000000   0.000000   0.000020  -0.000927   0.000020   0.000000
    14  C    0.000000  -0.000001  -0.000250   0.013813   0.000392  -0.000010
    15  C    0.000020  -0.000250   0.008974  -0.051498  -0.022848   0.000391
    16  C   -0.000420   0.000046  -0.000177  -0.048266  -0.029593   0.007893
    17  C    0.006327   0.000454   0.009954  -0.027557   0.409970  -0.052884
    18  H    0.000264   0.000017  -0.000275   0.002965  -0.035948  -0.003680
    19  H    0.000003   0.000000   0.000018   0.001452   0.002309  -0.000222
    20  H    0.000264  -0.003681  -0.035948   0.002966  -0.000275   0.000017
    21  H    0.345351  -0.027746   0.002600   0.001508   0.002600  -0.027749
    22  H   -0.033281   0.345114  -0.034150   0.003395   0.001009   0.003798
    23  H   -0.033273   0.003797   0.001009   0.003396  -0.034151   0.345111
    24  H    0.000003  -0.000222   0.002309   0.001453   0.000018   0.000000
    25  H    0.000000   0.000000   0.000000   0.000014   0.000000   0.000000
    26  H    0.000000   0.000000   0.000002  -0.000279   0.000029   0.000000
               7          8          9         10         11         12
     1  C    0.006326  -0.000927   0.000020  -0.000420   0.000000   0.000000
     2  C   -0.052871   0.013811   0.000392   0.007892  -0.000010   0.000000
     3  C    0.410021  -0.051527  -0.022851  -0.029586   0.000392   0.000029
     4  C   -0.027587   0.284951  -0.051536  -0.048265   0.013809  -0.000279
     5  C    0.009952  -0.051511   0.008971  -0.000177  -0.000250   0.000002
     6  C    0.000454   0.013812  -0.000250   0.000046  -0.000001   0.000000
     7  C    5.076723  -0.048259  -0.029598   0.484271   0.007890   0.000289
     8  C   -0.048259   5.221437   0.421919  -0.027571  -0.040886   0.003394
     9  C   -0.029598   0.421919   4.896337   0.409992   0.465882  -0.034148
    10  C    0.484271  -0.027571   0.409992   5.076786  -0.052873  -0.003447
    11  C    0.007890  -0.040886   0.465882  -0.052873   5.082167   0.345112
    12  H    0.000289   0.003394  -0.034148  -0.003447   0.345112   0.585150
    13  C   -0.000420  -0.035449  -0.025393   0.006328   0.484833  -0.033276
    14  C    0.000046  -0.040892  -0.044480   0.000454  -0.049885   0.003797
    15  C   -0.000176   0.421866  -0.056154   0.009953  -0.044470   0.001009
    16  C    0.000014  -0.027563   0.009953  -0.000270   0.000453   0.000008
    17  C   -0.000270  -0.048266  -0.000177   0.000014   0.000046   0.000000
    18  H    0.000002   0.001452   0.000018   0.000000   0.000000   0.000000
    19  H    0.000000   0.002964  -0.000275   0.000002   0.000017   0.000000
    20  H    0.341975   0.001452   0.002308  -0.026998  -0.000222  -0.000009
    21  H   -0.000211   0.000014   0.000000   0.000003   0.000000   0.000000
    22  H   -0.003448  -0.000279   0.000029   0.000289   0.000000   0.000000
    23  H    0.000008  -0.000279   0.000002   0.000000   0.000000   0.000000
    24  H   -0.027001   0.002964  -0.035941   0.341975  -0.003679   0.005742
    25  H    0.000003   0.001508   0.002600  -0.000211  -0.027744  -0.003570
    26  H    0.000000   0.003394   0.001009   0.000008   0.003798  -0.000174
              13         14         15         16         17         18
     1  C    0.000000   0.000000   0.000020  -0.000420   0.006327   0.000264
     2  C    0.000000  -0.000001  -0.000250   0.000046   0.000454   0.000017
     3  C    0.000020  -0.000250   0.008974  -0.000177   0.009954  -0.000275
     4  C   -0.000927   0.013813  -0.051498  -0.048266  -0.027557   0.002965
     5  C    0.000020   0.000392  -0.022848  -0.029593   0.409970  -0.035948
     6  C    0.000000  -0.000010   0.000391   0.007893  -0.052884  -0.003680
     7  C   -0.000420   0.000046  -0.000176   0.000014  -0.000270   0.000002
     8  C   -0.035449  -0.040892   0.421866  -0.027563  -0.048266   0.001452
     9  C   -0.025393  -0.044480  -0.056154   0.009953  -0.000177   0.000018
    10  C    0.006328   0.000454   0.009953  -0.000270   0.000014   0.000000
    11  C    0.484833  -0.049885  -0.044470   0.000453   0.000046   0.000000
    12  H   -0.033276   0.003797   0.001009   0.000008   0.000000   0.000000
    13  C    4.951139   0.484784  -0.025393   0.006326  -0.000420   0.000003
    14  C    0.484784   5.082307   0.465895  -0.052882   0.007893  -0.000222
    15  C   -0.025393   0.465895   4.896302   0.409972  -0.029580   0.002308
    16  C    0.006326  -0.052882   0.409972   5.076761   0.484268  -0.026997
    17  C   -0.000420   0.007893  -0.029580   0.484268   5.076778   0.341973
    18  H    0.000003  -0.000222   0.002308  -0.026997   0.341973   0.584731
    19  H    0.000264  -0.003678  -0.035946   0.341977  -0.027001  -0.003329
    20  H    0.000003   0.000000   0.000018   0.000000   0.000002   0.000000
    21  H    0.000000   0.000000   0.000000   0.000003  -0.000211  -0.000006
    22  H    0.000000   0.000000   0.000002   0.000000   0.000008   0.000000
    23  H    0.000000   0.000000   0.000029   0.000289  -0.003449   0.005745
    24  H    0.000264   0.000017  -0.000275   0.000002   0.000000   0.000000
    25  H    0.345349  -0.027747   0.002600  -0.000211   0.000003   0.000000
    26  H   -0.033278   0.345112  -0.034143  -0.003445   0.000289  -0.000009
              19         20         21         22         23         24
     1  C    0.000003   0.000264   0.345351  -0.033281  -0.033273   0.000003
     2  C    0.000000  -0.003681  -0.027746   0.345114   0.003797  -0.000222
     3  C    0.000018  -0.035948   0.002600  -0.034150   0.001009   0.002309
     4  C    0.001452   0.002966   0.001508   0.003395   0.003396   0.001453
     5  C    0.002309  -0.000275   0.002600   0.001009  -0.034151   0.000018
     6  C   -0.000222   0.000017  -0.027749   0.003798   0.345111   0.000000
     7  C    0.000000   0.341975  -0.000211  -0.003448   0.000008  -0.027001
     8  C    0.002964   0.001452   0.000014  -0.000279  -0.000279   0.002964
     9  C   -0.000275   0.002308   0.000000   0.000029   0.000002  -0.035941
    10  C    0.000002  -0.026998   0.000003   0.000289   0.000000   0.341975
    11  C    0.000017  -0.000222   0.000000   0.000000   0.000000  -0.003679
    12  H    0.000000  -0.000009   0.000000   0.000000   0.000000   0.005742
    13  C    0.000264   0.000003   0.000000   0.000000   0.000000   0.000264
    14  C   -0.003678   0.000000   0.000000   0.000000   0.000000   0.000017
    15  C   -0.035946   0.000018   0.000000   0.000002   0.000029  -0.000275
    16  C    0.341977   0.000000   0.000003   0.000000   0.000289   0.000002
    17  C   -0.027001   0.000002  -0.000211   0.000008  -0.003449   0.000000
    18  H   -0.003329   0.000000  -0.000006   0.000000   0.005745   0.000000
    19  H    0.584732   0.000000   0.000000   0.000000  -0.000009   0.000000
    20  H    0.000000   0.584734  -0.000006   0.005745   0.000000  -0.003329
    21  H    0.000000  -0.000006   0.585006  -0.003571  -0.003570   0.000000
    22  H    0.000000   0.005745  -0.003571   0.585163  -0.000174  -0.000009
    23  H   -0.000009   0.000000  -0.003570  -0.000174   0.585156   0.000000
    24  H    0.000000  -0.003329   0.000000  -0.000009   0.000000   0.584729
    25  H   -0.000006   0.000000   0.000000   0.000000   0.000000  -0.000006
    26  H    0.005742   0.000000   0.000000   0.000000   0.000000   0.000000
              25         26
     1  C    0.000000   0.000000
     2  C    0.000000   0.000000
     3  C    0.000000   0.000002
     4  C    0.000014  -0.000279
     5  C    0.000000   0.000029
     6  C    0.000000   0.000000
     7  C    0.000003   0.000000
     8  C    0.001508   0.003394
     9  C    0.002600   0.001009
    10  C   -0.000211   0.000008
    11  C   -0.027744   0.003798
    12  H   -0.003570  -0.000174
    13  C    0.345349  -0.033278
    14  C   -0.027747   0.345112
    15  C    0.002600  -0.034143
    16  C   -0.000211  -0.003445
    17  C    0.000003   0.000289
    18  H    0.000000  -0.000009
    19  H   -0.000006   0.005742
    20  H    0.000000   0.000000
    21  H    0.000000   0.000000
    22  H    0.000000   0.000000
    23  H    0.000000   0.000000
    24  H   -0.000006   0.000000
    25  H    0.585004  -0.003571
    26  H   -0.003571   0.585151
 Mulliken charges:
               1
     1  C   -0.124768
     2  C   -0.184409
     3  C    0.081335
     4  C   -0.021522
     5  C    0.081430
     6  C   -0.184440
     7  C   -0.148132
     8  C   -0.021531
     9  C    0.081373
    10  C   -0.148194
    11  C   -0.184379
    12  H    0.130371
    13  C   -0.124778
    14  C   -0.184463
    15  C    0.081395
    16  C   -0.148141
    17  C   -0.148164
    18  H    0.130990
    19  H    0.130989
    20  H    0.130988
    21  H    0.125985
    22  H    0.130360
    23  H    0.130364
    24  H    0.130987
    25  H    0.125987
    26  H    0.130367
 Sum of Mulliken charges =   0.00000
 Mulliken charges with hydrogens summed into heavy atoms:
               1
     1  C    0.001217
     2  C   -0.054049
     3  C    0.081335
     4  C   -0.021522
     5  C    0.081430
     6  C   -0.054076
     7  C   -0.017145
     8  C   -0.021531
     9  C    0.081373
    10  C   -0.017206
    11  C   -0.054009
    13  C    0.001209
    14  C   -0.054096
    15  C    0.081395
    16  C   -0.017152
    17  C   -0.017174
 Electronic spatial extent (au):  <R**2>=           2985.0024
 Charge=              0.0000 electrons
 Dipole moment (field-independent basis, Debye):
    X=              0.0000    Y=              0.0000    Z=              0.0011  Tot=              0.0011
 Quadrupole moment (field-independent basis, Debye-Ang):
   XX=            -79.8942   YY=            -80.1670   ZZ=            -97.3267
   XY=              0.0002   XZ=              0.0027   YZ=             -0.0001
 Traceless Quadrupole moment (field-independent basis, Debye-Ang):
   XX=              5.9018   YY=              5.6289   ZZ=            -11.5307
   XY=              0.0002   XZ=              0.0027   YZ=             -0.0001
 Octapole moment (field-independent basis, Debye-Ang**2):
  XXX=             -0.0012  YYY=             -0.0007  ZZZ=              0.0013  XYY=              0.0011
  XXY=              0.0015  XXZ=              0.0092  XZZ=              0.0004  YZZ=             -0.0002
  YYZ=              0.0112  XYZ=              0.0043
 Hexadecapole moment (field-independent basis, Debye-Ang**3):
 XXXX=          -2340.6903 YYYY=          -1351.9776 ZZZZ=           -101.1500 XXXY=             -0.0029
 XXXZ=             -0.0766 YYYX=              0.0036 YYYZ=              0.0056 ZZZX=             -0.1339
 ZZZY=              0.0097 XXYY=           -607.3672 XXZZ=           -491.9181 YYZZ=           -289.3249
 XXYZ=              0.0066 YYXZ=             -0.0227 ZZXY=              0.0002
 N-N= 9.665738932845D+02 E-N=-3.360746314944D+03  KE= 6.123586897251D+02
 Calling FoFJK, ICntrl=      2127 FMM=F ISym2X=0 I1Cent= 0 IOpClX= 0 NMat=1 NMatS=1 NMatT=0.
 ***** Axes restored to original set *****
 -------------------------------------------------------------------
 Center     Atomic                   Forces (Hartrees/Bohr)
 Number     Number              X              Y              Z
 -------------------------------------------------------------------
      1        6          -0.007906922   -0.013814956   -0.000024353
      2        6           0.003937095   -0.011956649   -0.000004282
      3        6           0.007108433   -0.003914256    0.000016962
      4        6           0.004417932    0.007774686    0.000026724
      5        6          -0.006964331    0.004156472   -0.000010682
      6        6          -0.012276109   -0.002771852   -0.000017676
      7        6           0.002936790   -0.014990782   -0.000025503
      8        6          -0.004452880   -0.007757256   -0.000001711
      9        6           0.007014211   -0.004113267    0.000005479
     10        6           0.014397367    0.005104356   -0.000018571
     11        6           0.012292748    0.002708995   -0.000001718
     12        1          -0.009364150   -0.000548046    0.000000851
     13        6           0.007849616    0.013865130   -0.000004876
     14        6          -0.003889687    0.011996937   -0.000008977
     15        6          -0.007135381    0.003875213   -0.000001497
     16        6          -0.002949077    0.015009964    0.000017778
     17        6          -0.014402507   -0.005134311   -0.000034205
     18        1           0.009526660    0.001331332    0.000024616
     19        1           0.003733411   -0.008865506   -0.000008313
     20        1          -0.003710077    0.008861256    0.000011037
     21        1           0.004835543    0.008486001    0.000011445
     22        1          -0.004302612    0.008315951    0.000004254
     23        1           0.009348807    0.000540236    0.000017934
     24        1          -0.009513610   -0.001317668    0.000015013
     25        1          -0.004834705   -0.008505931    0.000006710
     26        1           0.004303435   -0.008336047    0.000003562
 -------------------------------------------------------------------
 Cartesian Forces:  Max     0.015009964 RMS     0.006613687

 GradGradGradGradGradGradGradGradGradGradGradGradGradGradGradGradGradGrad
 Berny optimization.
 FormGI is forming the generalized inverse of G from B-inverse, IUseBI=4.
 Internal  Forces:  Max     0.009783927 RMS     0.003341033
 Search for a local minimum.
 Step number   1 out of a maximum of  156
 All quantities printed in internal units (Hartrees-Bohrs-Radians)
 Mixed Optimization -- RFO/linear search
 Second derivative matrix not updated -- first step.
 ITU=  0
     Eigenvalues ---    0.01648   0.01740   0.01779   0.01799   0.01799
     Eigenvalues ---    0.01820   0.01877   0.01916   0.01976   0.02067
     Eigenvalues ---    0.02072   0.02074   0.02075   0.02123   0.02123
     Eigenvalues ---    0.02132   0.02133   0.02156   0.02157   0.02183
     Eigenvalues ---    0.02183   0.02273   0.02300   0.16000   0.16000
     Eigenvalues ---    0.16000   0.16000   0.16000   0.16000   0.16000
     Eigenvalues ---    0.16000   0.16000   0.16000   0.22078   0.22189
     Eigenvalues ---    0.22401   0.22675   0.23441   0.23620   0.24531
     Eigenvalues ---    0.24588   0.24912   0.25000   0.32769   0.33580
     Eigenvalues ---    0.33580   0.33582   0.33582   0.33627   0.33630
     Eigenvalues ---    0.33654   0.33654   0.33656   0.33657   0.35469
     Eigenvalues ---    0.37155   0.39024   0.39627   0.39836   0.40114
     Eigenvalues ---    0.40306   0.40682   0.43307   0.43402   0.45392
     Eigenvalues ---    0.45431   0.45490   0.45493   0.46621   0.46625
     Eigenvalues ---    0.51878   0.52206
 RFO step:  Lambda=-4.52994944D-03 EMin= 1.64767122D-02
 Linear search not attempted -- first point.
 Iteration  1 RMS(Cart)=  0.00928636 RMS(Int)=  0.00002609
 Iteration  2 RMS(Cart)=  0.00003373 RMS(Int)=  0.00000383
 Iteration  3 RMS(Cart)=  0.00000000 RMS(Int)=  0.00000383
 Variable       Old X    -DE/DX   Delta X   Delta X   Delta X     New X
                                 (Linear)    (Quad)   (Total)
    R1        2.63210   0.00472   0.00000   0.00957   0.00956   2.64167
    R2        2.63222   0.00469   0.00000   0.00951   0.00950   2.64172
    R3        2.07959  -0.00977   0.00000  -0.02866  -0.02866   2.05093
    R4        2.64721   0.00645   0.00000   0.01404   0.01404   2.66124
    R5        2.07914  -0.00935   0.00000  -0.02742  -0.02742   2.05172
    R6        2.68176   0.00947   0.00000   0.02246   0.02247   2.70422
    R7        2.72058   0.00291   0.00000   0.00727   0.00726   2.72785
    R8        2.68183   0.00944   0.00000   0.02240   0.02241   2.70425
    R9        2.70858   0.00022   0.00000   0.00056   0.00057   2.70915
   R10        2.64708   0.00649   0.00000   0.01412   0.01412   2.66120
   R11        2.72061   0.00291   0.00000   0.00727   0.00726   2.72787
   R12        2.07914  -0.00935   0.00000  -0.02742  -0.02742   2.05171
   R13        2.56360   0.00743   0.00000   0.01372   0.01372   2.57732
   R14        2.08041  -0.00954   0.00000  -0.02804  -0.02804   2.05236
   R15        2.68175   0.00947   0.00000   0.02246   0.02247   2.70422
   R16        2.68184   0.00945   0.00000   0.02241   0.02242   2.70426
   R17        2.72058   0.00291   0.00000   0.00726   0.00726   2.72784
   R18        2.64723   0.00644   0.00000   0.01402   0.01402   2.66125
   R19        2.08041  -0.00954   0.00000  -0.02804  -0.02804   2.05237
   R20        2.07918  -0.00937   0.00000  -0.02747  -0.02747   2.05171
   R21        2.63209   0.00473   0.00000   0.00958   0.00958   2.64166
   R22        2.63223   0.00469   0.00000   0.00951   0.00950   2.64173
   R23        2.07964  -0.00978   0.00000  -0.02871  -0.02871   2.05093
   R24        2.64709   0.00648   0.00000   0.01409   0.01409   2.66118
   R25        2.07919  -0.00937   0.00000  -0.02747  -0.02747   2.05171
   R26        2.72065   0.00289   0.00000   0.00722   0.00721   2.72786
   R27        2.56357   0.00744   0.00000   0.01374   0.01373   2.57730
   R28        2.08045  -0.00956   0.00000  -0.02809  -0.02809   2.05237
   R29        2.08045  -0.00956   0.00000  -0.02808  -0.02808   2.05236
    A1        2.10712  -0.00023   0.00000  -0.00282  -0.00284   2.10428
    A2        2.08809   0.00011   0.00000   0.00137   0.00138   2.08947
    A3        2.08797   0.00012   0.00000   0.00145   0.00146   2.08943
    A4        2.10104   0.00158   0.00000   0.00611   0.00610   2.10714
    A5        2.09538  -0.00033   0.00000  -0.00027  -0.00026   2.09511
    A6        2.08677  -0.00125   0.00000  -0.00584  -0.00584   2.08093
    A7        2.08160  -0.00127   0.00000  -0.00446  -0.00445   2.07714
    A8        2.13027   0.00150   0.00000   0.00531   0.00530   2.13558
    A9        2.07131  -0.00023   0.00000  -0.00085  -0.00085   2.07047
   A10        2.09397  -0.00039   0.00000  -0.00046  -0.00045   2.09352
   A11        2.09457   0.00020   0.00000   0.00026   0.00025   2.09483
   A12        2.09464   0.00019   0.00000   0.00020   0.00020   2.09484
   A13        2.08164  -0.00128   0.00000  -0.00450  -0.00450   2.07715
   A14        2.07127  -0.00023   0.00000  -0.00083  -0.00083   2.07044
   A15        2.13027   0.00151   0.00000   0.00534   0.00533   2.13560
   A16        2.10100   0.00159   0.00000   0.00614   0.00614   2.10714
   A17        2.09545  -0.00035   0.00000  -0.00035  -0.00034   2.09511
   A18        2.08673  -0.00124   0.00000  -0.00580  -0.00579   2.08094
   A19        2.11728   0.00003   0.00000   0.00061   0.00061   2.11789
   A20        2.05232   0.00112   0.00000   0.00662   0.00662   2.05894
   A21        2.11359  -0.00116   0.00000  -0.00723  -0.00723   2.10636
   A22        2.09463   0.00019   0.00000   0.00020   0.00020   2.09483
   A23        2.09457   0.00021   0.00000   0.00026   0.00026   2.09483
   A24        2.09398  -0.00039   0.00000  -0.00046  -0.00046   2.09352
   A25        2.07129  -0.00023   0.00000  -0.00082  -0.00082   2.07047
   A26        2.08163  -0.00128   0.00000  -0.00449  -0.00449   2.07715
   A27        2.13027   0.00150   0.00000   0.00532   0.00531   2.13557
   A28        2.11728   0.00003   0.00000   0.00061   0.00061   2.11789
   A29        2.11343  -0.00114   0.00000  -0.00710  -0.00710   2.10633
   A30        2.05247   0.00110   0.00000   0.00650   0.00650   2.05897
   A31        2.08676  -0.00125   0.00000  -0.00584  -0.00584   2.08092
   A32        2.10100   0.00159   0.00000   0.00614   0.00614   2.10713
   A33        2.09543  -0.00034   0.00000  -0.00030  -0.00030   2.09513
   A34        2.10713  -0.00023   0.00000  -0.00283  -0.00284   2.10429
   A35        2.08807   0.00011   0.00000   0.00139   0.00140   2.08947
   A36        2.08798   0.00012   0.00000   0.00143   0.00144   2.08942
   A37        2.10103   0.00158   0.00000   0.00611   0.00610   2.10714
   A38        2.09529  -0.00032   0.00000  -0.00021  -0.00021   2.09507
   A39        2.08687  -0.00126   0.00000  -0.00589  -0.00589   2.08097
   A40        2.08161  -0.00127   0.00000  -0.00447  -0.00446   2.07715
   A41        2.07128  -0.00023   0.00000  -0.00083  -0.00083   2.07045
   A42        2.13030   0.00150   0.00000   0.00530   0.00529   2.13559
   A43        2.11731   0.00003   0.00000   0.00059   0.00059   2.11790
   A44        2.05242   0.00111   0.00000   0.00652   0.00652   2.05895
   A45        2.11345  -0.00113   0.00000  -0.00711  -0.00711   2.10634
   A46        2.11729   0.00003   0.00000   0.00061   0.00062   2.11791
   A47        2.05236   0.00112   0.00000   0.00657   0.00657   2.05894
   A48        2.11353  -0.00115   0.00000  -0.00719  -0.00719   2.10634
    D1        0.00003   0.00000   0.00000  -0.00003  -0.00003   0.00000
    D2       -3.14146   0.00000   0.00000  -0.00014  -0.00014   3.14158
    D3        3.14132   0.00001   0.00000   0.00028   0.00028  -3.14158
    D4       -0.00018   0.00000   0.00000   0.00018   0.00018   0.00000
    D5       -0.00011   0.00000   0.00000   0.00011   0.00011  -0.00001
    D6        3.14119   0.00001   0.00000   0.00036   0.00036   3.14156
    D7       -3.14140  -0.00001   0.00000  -0.00021  -0.00021   3.14157
    D8       -0.00010   0.00000   0.00000   0.00005   0.00005  -0.00005
    D9        0.00003   0.00000   0.00000  -0.00001  -0.00001   0.00002
   D10        3.14154   0.00000   0.00000   0.00008   0.00008  -3.14156
   D11        3.14153   0.00000   0.00000   0.00010   0.00010  -3.14156
   D12       -0.00015   0.00000   0.00000   0.00019   0.00019   0.00004
   D13       -0.00001   0.00000   0.00000  -0.00003  -0.00003  -0.00004
   D14        3.14142   0.00000   0.00000   0.00010   0.00010   3.14152
   D15       -3.14152   0.00000   0.00000  -0.00012  -0.00012   3.14155
   D16       -0.00009   0.00000   0.00000   0.00002   0.00002  -0.00008
   D17       -3.14152   0.00000   0.00000  -0.00002  -0.00002  -3.14154
   D18        0.00036  -0.00001   0.00000  -0.00030  -0.00031   0.00005
   D19       -0.00001   0.00000   0.00000   0.00006   0.00006   0.00006
   D20       -3.14132   0.00000   0.00000  -0.00022  -0.00022  -3.14154
   D21       -0.00008   0.00000   0.00000   0.00011   0.00010   0.00003
   D22       -3.14155   0.00000   0.00000  -0.00006  -0.00006   3.14158
   D23       -3.14150   0.00000   0.00000  -0.00003  -0.00003  -3.14153
   D24        0.00021   0.00000   0.00000  -0.00019  -0.00019   0.00002
   D25        0.00012   0.00000   0.00000  -0.00008  -0.00008   0.00004
   D26       -3.14149   0.00000   0.00000  -0.00004  -0.00004  -3.14153
   D27        3.14154   0.00000   0.00000   0.00005   0.00005  -3.14159
   D28       -0.00007   0.00000   0.00000   0.00010   0.00010   0.00003
   D29        0.00014   0.00000   0.00000  -0.00014  -0.00014  -0.00001
   D30       -3.14117  -0.00001   0.00000  -0.00040  -0.00040  -3.14157
   D31       -3.14158   0.00000   0.00000   0.00002   0.00002  -3.14156
   D32        0.00030  -0.00001   0.00000  -0.00023  -0.00023   0.00007
   D33       -0.00017   0.00000   0.00000   0.00012   0.00012  -0.00005
   D34        3.14103   0.00001   0.00000   0.00045   0.00045   3.14149
   D35        3.14155   0.00000   0.00000  -0.00005  -0.00005   3.14150
   D36       -0.00044   0.00001   0.00000   0.00029   0.00029  -0.00015
   D37        0.00009   0.00000   0.00000  -0.00009  -0.00009   0.00000
   D38       -3.14124  -0.00001   0.00000  -0.00035  -0.00034  -3.14158
   D39        3.14139   0.00001   0.00000   0.00021   0.00021  -3.14159
   D40        0.00007   0.00000   0.00000  -0.00005  -0.00005   0.00002
   D41       -0.00004   0.00000   0.00000   0.00006   0.00006   0.00002
   D42        3.14155   0.00000   0.00000   0.00008   0.00008  -3.14156
   D43        3.14157   0.00000   0.00000   0.00002   0.00002   3.14159
   D44       -0.00003   0.00000   0.00000   0.00004   0.00004   0.00001
   D45       -3.14159   0.00000   0.00000  -0.00004  -0.00004   3.14156
   D46       -0.00012   0.00000   0.00000   0.00007   0.00007  -0.00005
   D47       -0.00001   0.00000   0.00000   0.00000   0.00000  -0.00001
   D48        3.14146   0.00000   0.00000   0.00011   0.00011   3.14157
   D49       -0.00006   0.00000   0.00000   0.00002   0.00002  -0.00004
   D50        3.14127   0.00001   0.00000   0.00027   0.00027   3.14154
   D51        3.14154   0.00000   0.00000   0.00000   0.00000   3.14154
   D52       -0.00032   0.00001   0.00000   0.00025   0.00025  -0.00007
   D53       -3.14153   0.00000   0.00000  -0.00008  -0.00008   3.14158
   D54        0.00003   0.00000   0.00000  -0.00003  -0.00003  -0.00001
   D55        0.00005   0.00000   0.00000  -0.00005  -0.00005   0.00000
   D56       -3.14158   0.00000   0.00000  -0.00001  -0.00001  -3.14158
   D57        0.00002   0.00000   0.00000  -0.00002  -0.00002   0.00000
   D58       -3.14144   0.00000   0.00000  -0.00015  -0.00015  -3.14159
   D59        3.14158   0.00000   0.00000   0.00002   0.00002  -3.14158
   D60        0.00012   0.00000   0.00000  -0.00010  -0.00010   0.00002
   D61       -0.00007   0.00000   0.00000   0.00007   0.00007   0.00000
   D62       -3.14149   0.00000   0.00000  -0.00012  -0.00012   3.14158
   D63        3.14139   0.00000   0.00000   0.00019   0.00019   3.14159
   D64       -0.00002   0.00000   0.00000   0.00000   0.00000  -0.00002
   D65        0.00006   0.00000   0.00000  -0.00005  -0.00005   0.00001
   D66       -3.14140   0.00000   0.00000  -0.00017  -0.00017  -3.14157
   D67        3.14148   0.00000   0.00000   0.00013   0.00013  -3.14157
   D68        0.00001   0.00000   0.00000   0.00002   0.00002   0.00003
   D69        0.00016   0.00000   0.00000  -0.00015  -0.00015   0.00002
   D70       -3.14154   0.00000   0.00000  -0.00006  -0.00006   3.14158
   D71       -3.14155   0.00000   0.00000  -0.00003  -0.00003  -3.14159
   D72       -0.00008   0.00000   0.00000   0.00006   0.00006  -0.00002
   D73       -0.00002   0.00000   0.00000   0.00005   0.00005   0.00003
   D74       -3.14121  -0.00001   0.00000  -0.00030  -0.00030  -3.14150
   D75       -3.14149   0.00000   0.00000  -0.00004  -0.00004  -3.14153
   D76        0.00050  -0.00001   0.00000  -0.00039  -0.00039   0.00012
         Item               Value     Threshold  Converged?
 Maximum Force            0.009784     0.000450     NO 
 RMS     Force            0.003341     0.000300     NO 
 Maximum Displacement     0.029455     0.001800     NO 
 RMS     Displacement     0.009275     0.001200     NO 
 Predicted change in Energy=-2.293122D-03
 GradGradGradGradGradGradGradGradGradGradGradGradGradGradGradGradGradGrad

                          Input orientation:                          
 ---------------------------------------------------------------------
 Center     Atomic      Atomic             Coordinates (Angstroms)
 Number     Number       Type             X           Y           Z
 ---------------------------------------------------------------------
      1          6           0       -5.711557   -2.881543   -0.027420
      2          6           0       -4.313649   -2.879573   -0.027370
      3          6           0       -3.595736   -1.668035   -0.027304
      4          6           0       -4.318563   -0.432995   -0.027256
      5          6           0       -5.749555   -0.442716   -0.027322
      6          6           0       -6.424158   -1.678866   -0.027400
      7          6           0       -2.152865   -1.624959   -0.027286
      8          6           0       -3.609646    0.813083   -0.027098
      9          6           0       -2.178670    0.822792   -0.027035
     10          6           0       -1.478452   -0.439514   -0.027157
     11          6           0       -1.504047    2.058960   -0.026834
     12          1           0       -0.418389    2.070423   -0.026772
     13          6           0       -2.216633    3.261612   -0.026708
     14          6           0       -3.614573    3.259651   -0.026773
     15          6           0       -4.332475    2.048145   -0.026972
     16          6           0       -5.775353    2.005053   -0.027069
     17          6           0       -6.449762    0.819617   -0.027253
     18          1           0       -7.535645    0.799744   -0.027408
     19          1           0       -6.313117    2.948634   -0.026964
     20          1           0       -1.615120   -2.568551   -0.027374
     21          1           0       -6.248246   -3.824863   -0.027463
     22          1           0       -3.768787   -3.818677   -0.027375
     23          1           0       -7.509816   -1.690354   -0.027473
     24          1           0       -0.392568   -0.419660   -0.027156
     25          1           0       -1.679984    4.204954   -0.026561
     26          1           0       -4.159389    4.198780   -0.026660
 ---------------------------------------------------------------------
                    Distance matrix (angstroms):
                    1          2          3          4          5
     1  C    0.000000
     2  C    1.397909   0.000000
     3  C    2.439118   1.408269   0.000000
     4  C    2.817059   2.446583   1.431014   0.000000
     5  C    2.439123   2.828444   2.477971   1.431026   0.000000
     6  C    1.397939   2.428157   2.828442   2.446574   1.408245
     7  C    3.774029   2.498608   1.443514   2.472049   3.786011
     8  C    4.250681   3.759165   2.481157   1.433622   2.481177
     9  C    5.118924   4.273831   2.865710   2.481157   3.788500
    10  C    4.886992   3.740619   2.447888   2.840118   4.271105
    11  C    6.489354   5.681810   4.273834   3.759167   4.927750
    12  H    7.248420   6.298849   4.906282   4.634485   5.893827
    13  C    7.067733   6.489347   5.118920   4.250674   5.118944
    14  C    6.489346   6.178898   4.927722   3.759154   4.273836
    15  C    5.118954   4.927753   3.788506   2.481179   2.865746
    16  C    4.887012   5.098641   4.271101   2.840126   2.447904
    17  C    3.774060   4.271649   3.786010   2.472053   1.443528
    18  H    4.108427   4.890668   4.648959   3.445180   2.175735
    19  H    5.861130   6.161645   5.357032   3.926024   3.437857
    20  H    4.108377   2.716394   2.175723   3.445171   4.648949
    21  H    1.085305   2.153193   3.418730   3.902364   3.418715
    22  H    2.156982   1.085721   2.157593   3.430028   3.914148
    23  H    2.157004   3.410238   3.914144   3.430022   2.157573
    24  H    5.861101   4.628828   3.437838   3.926017   5.357037
    25  H    8.153038   7.558221   6.177548   5.335978   6.177560
    26  H    7.248462   7.080034   5.893829   4.634509   4.906334
                    6          7          8          9         10
     6  C    0.000000
     7  C    4.271633   0.000000
     8  C    3.759160   2.840116   0.000000
     9  C    4.927723   2.447886   1.431009   0.000000
    10  C    5.098627   1.363859   2.472042   1.443510   0.000000
    11  C    6.178902   3.740618   2.446581   1.408272   2.498606
    12  H    7.080001   4.082187   3.430018   2.157585   2.724613
    13  C    6.489344   4.886987   2.817052   2.439116   3.774022
    14  C    5.681788   5.098628   2.446574   2.828445   4.271632
    15  C    4.273844   4.271111   1.431034   2.477976   3.786013
    16  C    3.740615   5.128294   2.472060   3.786010   4.943609
    17  C    2.498613   4.943610   2.840124   4.271093   5.128288
    18  H    2.716415   5.903686   3.926022   5.357025   6.182666
    19  H    4.628832   6.182674   3.445190   4.648963   5.903689
    20  H    4.890643   1.086064   3.926013   3.437847   2.133419
    21  H    2.153195   4.648841   5.335986   6.177551   5.849062
    22  H    3.410247   2.724629   4.634492   4.906292   4.082202
    23  H    1.085719   5.357351   4.634493   5.893812   6.159705
    24  H    6.161629   2.133399   3.445177   2.175740   1.086065
    25  H    7.558209   5.849059   3.902357   3.418729   4.648838
    26  H    6.298881   6.159714   3.430038   3.914147   5.357350
                   11         12         13         14         15
    11  C    0.000000
    12  H    1.085719   0.000000
    13  C    1.397909   2.156991   0.000000
    14  C    2.428163   3.410257   1.397942   0.000000
    15  C    2.828448   3.914149   2.439117   1.408237   0.000000
    16  C    4.271646   5.357363   3.774047   2.498597   1.443522
    17  C    5.098634   6.159706   4.886996   3.740597   2.447894
    18  H    6.161639   7.229796   5.861116   4.628817   3.437849
    19  H    4.890672   5.959788   4.108423   2.716408   2.175735
    20  H    4.628844   4.790849   5.861110   6.161636   5.357042
    21  H    7.558227   8.291057   8.153038   7.558213   6.177572
    22  H    6.298862   6.775445   7.248425   7.080008   5.893839
    23  H    7.080016   8.026941   7.248432   6.298847   4.906310
    24  H    2.716421   2.490216   4.108403   4.890669   4.648970
    25  H    2.153193   2.479485   1.085305   2.153191   3.418704
    26  H    3.410230   4.304066   2.156985   1.085719   2.157589
                   16         17         18         19         20
    16  C    0.000000
    17  C    1.363850   0.000000
    18  H    2.133400   1.086065   0.000000
    19  H    1.086065   2.133398   2.472307   0.000000
    20  H    6.182668   5.903681   6.811610   7.246414   0.000000
    21  H    5.849063   4.648849   4.800457   6.773808   4.800435
    22  H    6.159718   5.357368   5.959784   7.229807   2.490201
    23  H    4.082205   2.724641   2.490233   4.790857   5.959755
    24  H    5.903694   6.182670   7.246413   6.811630   2.472320
    25  H    4.648830   5.849042   6.773789   4.800444   6.773815
    26  H    2.724662   4.082225   4.790882   2.490263   7.229804
                   21         22         23         24         25
    21  H    0.000000
    22  H    2.479466   0.000000
    23  H    2.479453   4.304074   0.000000
    24  H    6.773800   4.790842   7.229791   0.000000
    25  H    9.238343   8.291064   8.291056   4.800468   0.000000
    26  H    8.291090   8.026966   6.775491   5.959775   2.479413
                   26
    26  H    0.000000
 Stoichiometry    C16H10
 Framework group  C1[X(C16H10)]
 Deg. of freedom    72
 Full point group                 C1      NOp   1
 Largest Abelian subgroup         C1      NOp   1
 Largest concise Abelian subgroup C1      NOp   1
                         Standard orientation:                         
 ---------------------------------------------------------------------
 Center     Atomic      Atomic             Coordinates (Angstroms)
 Number     Number       Type             X           Y           Z
 ---------------------------------------------------------------------
      1          6           0        3.533870   -0.000009    0.000281
      2          6           0        2.840907   -1.214074    0.000231
      3          6           0        1.432858   -1.238980    0.000164
      4          6           0        0.716811    0.000002    0.000117
      5          6           0        1.432869    1.238991    0.000183
      6          6           0        2.840895    1.214083    0.000260
      7          6           0        0.681934   -2.471800    0.000147
      8          6           0       -0.716811   -0.000005   -0.000041
      9          6           0       -1.432852   -1.238986   -0.000105
     10          6           0       -0.681926   -2.471801    0.000018
     11          6           0       -2.840903   -1.214086   -0.000305
     12          1           0       -3.387711   -2.152055   -0.000367
     13          6           0       -3.533863   -0.000021   -0.000432
     14          6           0       -2.840894    1.214078   -0.000366
     15          6           0       -1.432877    1.238990   -0.000167
     16          6           0       -0.681935    2.471808   -0.000070
     17          6           0        0.681915    2.471809    0.000114
     18          1           0        1.236144    3.405815    0.000269
     19          1           0       -1.236163    3.405815   -0.000175
     20          1           0        1.236180   -3.405795    0.000235
     21          1           0        4.619175    0.000012    0.000323
     22          1           0        3.387734   -2.152035    0.000236
     23          1           0        3.387726    2.152039    0.000333
     24          1           0       -1.236140   -3.405815    0.000017
     25          1           0       -4.619168    0.000005   -0.000578
     26          1           0       -3.387764    2.152011   -0.000479
 ---------------------------------------------------------------------
 Rotational constants (GHZ):           1.0044535           0.5518765           0.3561804
 Standard basis: 6-31G (6D, 7F)
 There are   164 symmetry adapted cartesian basis functions of A   symmetry.
 There are   164 symmetry adapted basis functions of A   symmetry.
   164 basis functions,   392 primitive gaussians,   164 cartesian basis functions
    53 alpha electrons       53 beta electrons
       nuclear repulsion energy       962.8799021967 Hartrees.
 NAtoms=   26 NActive=   26 NUniq=   26 SFac= 1.00D+00 NAtFMM=   60 NAOKFM=F Big=F
 Integral buffers will be    131072 words long.
 Raffenetti 2 integral format.
 Two-electron integral symmetry is turned on.
 One-electron integrals computed using PRISM.
 NBasis=   164 RedAO= T EigKep=  2.34D-04  NBF=   164
 NBsUse=   164 1.00D-06 EigRej= -1.00D+00 NBFU=   164
 Initial guess from the checkpoint file:  "pyrene_opt.chk"
 B after Tr=     0.000000    0.000000    0.000000
         Rot=    1.000000   -0.000001    0.000002   -0.000009 Ang=   0.00 deg.
 ExpMin= 1.61D-01 ExpMax= 3.05D+03 ExpMxC= 4.57D+02 IAcc=2 IRadAn=         4 AccDes= 0.00D+00
 Harris functional with IExCor=  402 and IRadAn=       4 diagonalized for initial guess.
 HarFok:  IExCor=  402 AccDes= 0.00D+00 IRadAn=         4 IDoV= 1 UseB2=F ITyADJ=14
 ICtDFT=  3500011 ScaDFX=  1.000000  1.000000  1.000000  1.000000
 FoFCou: FMM=F IPFlag=           0 FMFlag=      100000 FMFlg1=           0
         NFxFlg=           0 DoJE=T BraDBF=F KetDBF=T FulRan=T
         wScrn=  0.000000 ICntrl=       500 IOpCl=  0 I1Cent=   200000004 NGrid=           0
         NMat0=    1 NMatS0=      1 NMatT0=    0 NMatD0=    1 NMtDS0=    0 NMtDT0=    0
 Petite list used in FoFCou.
 Keep R1 ints in memory in canonical form, NReq=95507385.
 Requested convergence on RMS density matrix=1.00D-08 within 128 cycles.
 Requested convergence on MAX density matrix=1.00D-06.
 Requested convergence on             energy=1.00D-06.
 No special actions if energy rises.
 Integral accuracy reduced to 1.0D-05 until final iterations.
 Initial convergence to 1.0D-05 achieved.  Increase integral accuracy.
 SCF Done:  E(RB3LYP) =  -615.634732248     A.U. after   11 cycles
            NFock= 11  Conv=0.42D-08     -V/T= 2.0055
 Calling FoFJK, ICntrl=      2127 FMM=F ISym2X=0 I1Cent= 0 IOpClX= 0 NMat=1 NMatS=1 NMatT=0.
 ***** Axes restored to original set *****
 -------------------------------------------------------------------
 Center     Atomic                   Forces (Hartrees/Bohr)
 Number     Number              X              Y              Z
 -------------------------------------------------------------------
      1        6           0.000356604    0.000659196    0.000001395
      2        6          -0.000368903    0.000692145   -0.000000674
      3        6           0.001192564   -0.000640762   -0.000001403
      4        6           0.001445019    0.002544154    0.000002639
      5        6          -0.001149456    0.000714717    0.000002748
      6        6           0.000787359    0.000016518   -0.000004795
      7        6          -0.002494940   -0.000970683    0.000001383
      8        6          -0.001455840   -0.002537633   -0.000000407
      9        6           0.001162796   -0.000694824    0.000001381
     10        6          -0.000437162    0.002632258   -0.000001383
     11        6          -0.000787073   -0.000038615   -0.000000894
     12        1           0.000279075   -0.000117246   -0.000000490
     13        6          -0.000382984   -0.000643504   -0.000000342
     14        6           0.000397289   -0.000679898    0.000000415
     15        6          -0.001198776    0.000618293   -0.000000334
     16        6           0.002495470    0.000975002    0.000002663
     17        6           0.000435977   -0.002648685   -0.000005360
     18        1          -0.000107395    0.000431478    0.000004488
     19        1          -0.000425099   -0.000128113   -0.000002480
     20        1           0.000426972    0.000129039    0.000000389
     21        1          -0.000008499   -0.000018190   -0.000000528
     22        1           0.000244283   -0.000177657   -0.000000796
     23        1          -0.000278652    0.000118330    0.000001636
     24        1           0.000106896   -0.000428856    0.000000946
     25        1           0.000012118    0.000016771    0.000000558
     26        1          -0.000247642    0.000176765   -0.000000755
 -------------------------------------------------------------------
 Cartesian Forces:  Max     0.002648685 RMS     0.000861316

 GradGradGradGradGradGradGradGradGradGradGradGradGradGradGradGradGradGrad
 Berny optimization.
 Using GEDIIS/GDIIS optimizer.
 FormGI is forming the generalized inverse of G from B-inverse, IUseBI=4.
 Internal  Forces:  Max     0.002385313 RMS     0.000399467
 Search for a local minimum.
 Step number   2 out of a maximum of  156
 All quantities printed in internal units (Hartrees-Bohrs-Radians)
 Mixed Optimization -- En-DIIS/RFO-DIIS
 Update second derivatives using D2CorX and points    1    2
 DE= -2.23D-03 DEPred=-2.29D-03 R= 9.71D-01
 TightC=F SS=  1.41D+00  RLast= 1.12D-01 DXNew= 5.0454D-01 3.3478D-01
 Trust test= 9.71D-01 RLast= 1.12D-01 DXMaxT set to 3.35D-01
 ITU=  1  0
 Use linear search instead of GDIIS.
     Eigenvalues ---    0.01648   0.01741   0.01779   0.01798   0.01799
     Eigenvalues ---    0.01819   0.01877   0.01914   0.01977   0.02066
     Eigenvalues ---    0.02071   0.02072   0.02072   0.02123   0.02123
     Eigenvalues ---    0.02132   0.02133   0.02156   0.02157   0.02183
     Eigenvalues ---    0.02183   0.02271   0.02297   0.15790   0.16000
     Eigenvalues ---    0.16000   0.16000   0.16000   0.16000   0.16000
     Eigenvalues ---    0.16000   0.16000   0.16000   0.22078   0.22213
     Eigenvalues ---    0.22402   0.22676   0.23433   0.23614   0.24526
     Eigenvalues ---    0.24586   0.24911   0.25000   0.32801   0.32975
     Eigenvalues ---    0.33580   0.33581   0.33582   0.33607   0.33629
     Eigenvalues ---    0.33654   0.33655   0.33657   0.33705   0.35513
     Eigenvalues ---    0.37175   0.39031   0.39383   0.39849   0.40321
     Eigenvalues ---    0.40707   0.41217   0.43317   0.43415   0.45430
     Eigenvalues ---    0.45436   0.45499   0.46621   0.46625   0.47891
     Eigenvalues ---    0.51461   0.52219
 RFO step:  Lambda=-6.15644840D-05 EMin= 1.64756772D-02
 Quartic linear search produced a step of -0.02149.
 Iteration  1 RMS(Cart)=  0.00144266 RMS(Int)=  0.00000128
 Iteration  2 RMS(Cart)=  0.00000137 RMS(Int)=  0.00000008
 Iteration  3 RMS(Cart)=  0.00000000 RMS(Int)=  0.00000008
 Variable       Old X    -DE/DX   Delta X   Delta X   Delta X     New X
                                 (Linear)    (Quad)   (Total)
    R1        2.64167  -0.00049  -0.00021  -0.00073  -0.00094   2.64073
    R2        2.64172  -0.00051  -0.00020  -0.00077  -0.00097   2.64075
    R3        2.05093   0.00002   0.00062  -0.00096  -0.00035   2.05058
    R4        2.66124  -0.00075  -0.00030  -0.00111  -0.00141   2.65983
    R5        2.05172   0.00028   0.00059  -0.00017   0.00042   2.05213
    R6        2.70422   0.00011  -0.00048   0.00105   0.00057   2.70479
    R7        2.72785  -0.00173  -0.00016  -0.00395  -0.00410   2.72374
    R8        2.70425   0.00011  -0.00048   0.00104   0.00056   2.70480
    R9        2.70915  -0.00239  -0.00001  -0.00595  -0.00596   2.70319
   R10        2.66120  -0.00074  -0.00030  -0.00108  -0.00139   2.65981
   R11        2.72787  -0.00173  -0.00016  -0.00396  -0.00412   2.72375
[...]
 00048,-0.01220670,0.00368448,-0.00000030,-0.33872171,-0.00346395,-0.00
 001110,0.35980924,-0.00035730,0.00010221,0.,0.00005601,0.00018081,0.00
 000003,0.00135835,0.00052102,0.00000008,0.00103072,-0.00484359,-0.0000
 0075,0.02973802,0.00224880,0.00000101,0.00145889,0.00176294,0.00000048
 ,0.00003392,-0.00043285,-0.00000003,-0.00024114,-0.00065548,-0.0000000
 8,0.00009333,0.00015599,0.00000012,-0.00002650,0.00001336,-0.00000001,
 0.00007316,-0.00014079,-0.00000003,-0.00001227,0.00001970,0.,-0.000264
 12,-0.00032501,0.00000004,-0.00109950,0.00073653,-0.00000001,-0.000919
 41,-0.00466907,-0.00000133,-0.03184675,0.00257232,-0.00000142,-0.00233
 588,-0.05973771,-0.00000205,0.00390382,0.06179574,-0.00000005,0.000000
 04,-0.00007605,0.00000002,0.00000003,-0.00009171,0.00000008,-0.0000000
 2,0.00039947,0.,-0.00000066,0.00344263,0.00000203,-0.00000021,0.003666
 06,0.00000030,0.00000034,-0.00254105,0.00000001,-0.00000002,-0.0001048
 0,-0.00000002,-0.00000006,0.00009871,0.00000006,0.00000012,-0.00109860
 ,0.,-0.00000001,0.00013593,0.,-0.00000004,0.00025495,0.,0.,0.00010659,
 0.,0.00000004,-0.00091022,-0.00000014,0.00000005,0.00029429,-0.0000004
 2,-0.00000140,0.00944202,-0.00000371,-0.00000012,0.00459334,-0.0000107
 5,-0.00000207,-0.03841472,0.00001239,0.00000348,0.02580975,-0.00001753
 ,-0.00020954,0.00000002,-0.00009736,-0.00002290,-0.00000002,0.00004789
 ,0.00011903,0.00000006,-0.00032116,-0.00074773,-0.00000008,-0.00157998
 ,-0.00275063,-0.00000072,0.00064894,-0.00034970,-0.00000002,0.00005138
 ,-0.00000591,0.,-0.00492799,-0.00243402,-0.00000058,-0.00005350,0.0017
 4594,0.00000014,-0.00045803,-0.00026428,-0.00000004,0.00015403,-0.0000
 0800,0.,-0.00001138,-0.00007868,0.,0.00009518,-0.00028826,-0.00000002,
 0.00158690,0.00186502,0.00000034,-0.01330900,0.02960403,0.00000199,-0.
 13002638,0.12171389,0.00000712,0.01108334,-0.01800295,-0.00000138,0.00
 106703,0.00034160,0.00000032,0.13617075,-0.00025317,-0.00041683,0.0000
 0003,-0.00014622,0.00002082,-0.00000003,0.00008853,0.00011276,0.000000
 11,-0.00032129,0.00019679,0.,-0.00427750,-0.00158832,-0.00000116,0.001
 24685,-0.00052490,-0.00000003,-0.00003747,-0.00002128,-0.00000002,-0.0
 0088875,0.00098531,-0.00000026,-0.00039181,-0.00013105,-0.00000006,0.0
 0000844,0.00006882,0.00000002,-0.00001095,0.00028850,0.00000003,0.0000
 2923,0.00001812,0.,0.00036913,-0.00001395,0.00000002,-0.00116274,0.001
 07969,0.00000028,-0.00356447,0.00247422,-0.00000025,0.12058586,-0.2684
 3266,-0.00001560,0.01752825,-0.02071766,-0.00000159,-0.00046345,0.0009
 9459,0.00000058,-0.12902836,0.28543387,0.00000001,0.00000005,-0.000910
 22,-0.00000002,-0.00000003,0.00025495,0.00000006,0.00000012,-0.0010986
 0,-0.00000002,-0.00000002,0.00009870,-0.00000083,-0.00000111,0.0094420
 2,0.00000011,-0.00000009,0.00029429,0.,-0.00000002,0.00013593,-0.00000
 042,-0.00000034,0.00344263,-0.00000005,0.00000002,0.00039947,-0.000000
 01,0.,-0.00010480,0.,0.00000003,-0.00009171,0.,0.,0.00003645,0.0000000
 3,0.,-0.00007605,0.00000007,0.00000042,-0.00254106,-0.00000105,0.00000
 109,0.00366607,0.00000705,-0.00001538,-0.03841476,0.00000183,-0.000003
 21,0.00459332,0.00000020,0.00000063,-0.00571091,-0.00000698,0.00001795
 ,0.02580980,0.00009518,-0.00028826,-0.00000002,0.00158690,0.00186502,0
 .00000038,-0.01330887,0.02960397,0.00000203,-0.00492797,-0.00243402,-0
 .00000061,-0.00005350,0.00174594,0.00000015,0.00015402,-0.00000800,0.,
 -0.13002706,0.12171440,0.00000726,-0.00032116,-0.00074773,-0.00000009,
 -0.00157997,-0.00275064,-0.00000075,0.01108335,-0.01800292,-0.00000140
 ,0.00064894,-0.00034970,-0.00000002,-0.00000486,0.00000948,-0.00000001
 ,-0.00001753,-0.00020954,0.00000002,-0.00009736,-0.00002290,-0.0000000
 2,0.00004789,0.00011902,0.00000006,0.00005138,-0.00000591,0.,-0.000458
 03,-0.00026428,-0.00000004,-0.00010373,0.00015680,0.00000001,0.0000145
 4,0.00002940,0.,0.13617128,0.00036913,-0.00001395,0.00000002,-0.001162
 75,0.00107967,0.00000029,-0.00356450,0.00247428,-0.00000028,-0.0008887
 5,0.00098531,-0.00000027,-0.00039182,-0.00013105,-0.00000006,-0.000010
 95,0.00028850,0.00000004,0.12058634,-0.26843241,-0.00001614,-0.0003213
 0,0.00019678,0.,-0.00427751,-0.00158836,-0.00000122,0.01752830,-0.0207
 1773,-0.00000159,0.00124685,-0.00052489,-0.00000002,-0.00007542,-0.000
 01235,-0.00000003,-0.00025317,-0.00041684,0.00000004,-0.00014622,0.000
 02082,-0.00000003,0.00008853,0.00011276,0.00000012,-0.00003747,-0.0000
 2128,-0.00000002,0.00000844,0.00006882,0.00000002,0.00002525,0.0000044
 9,0.,0.00002940,-0.00002308,0.,-0.12902883,0.28543368,0.00000006,-0.00
 000002,-0.00007605,0.00000006,0.00000043,-0.00254108,-0.00000102,0.000
 00122,0.00366602,-0.00000046,-0.00000033,0.00344267,-0.00000006,0.0000
 0003,0.00039947,0.,0.00000005,-0.00009171,0.00000707,-0.00001609,-0.03
 841468,-0.00000006,-0.00000004,0.00009870,-0.00000090,-0.00000118,0.00
 944198,0.00000196,-0.00000315,0.00459332,0.00000014,-0.00000009,0.0002
 9429,-0.00000002,-0.00000002,0.00025656,0.00000002,0.00000003,-0.00091
 021,-0.00000004,-0.00000003,0.00025495,0.00000006,0.00000013,-0.001098
 60,0.,-0.00000002,0.00013593,-0.00000002,0.,-0.00010480,0.,0.,-0.00000
 185,0.,0.,0.00000249,-0.00000712,0.00001853,0.02580975,-0.12936250,-0.
 12077262,-0.00001621,-0.01206490,-0.03096961,-0.00000379,-0.00517044,0
 .00201798,-0.00000035,-0.00052490,0.00069532,0.00000005,-0.00154090,0.
 00310249,-0.00000008,0.01122711,0.01781958,0.00000214,0.00022368,-0.00
 149017,-0.00000015,0.00015522,-0.00006495,0.00000005,-0.00000297,0.000
 31558,0.00000002,-0.00057106,-0.00005353,0.,0.00002409,-0.00019173,-0.
 00000002,-0.00000291,0.00000327,0.,-0.00014044,0.00009875,0.,0.0001637
 6,0.00005272,0.00000001,-0.00019872,-0.00017494,-0.00000003,-0.0000143
 7,0.00028953,0.00000005,0.00061160,0.00033395,0.00000004,0.00000985,-0
 .00000998,0.,0.00003667,0.00006494,0.,-0.00003232,0.00003972,0.,0.1352
 6377,-0.12077261,-0.27293802,-0.00002901,0.00397461,0.00341069,0.00000
 018,0.00094506,0.00150275,-0.00000053,0.00069532,0.00030172,0.00000006
 ,0.00417542,-0.00212682,-0.00000076,-0.01712464,-0.01988138,-0.0000030
 8,0.00010337,-0.00007566,-0.00000004,-0.00006495,0.00007800,0.00000012
 ,-0.00005858,-0.00011513,-0.00000003,-0.00004136,0.00012592,0.00000006
 ,-0.00003029,0.00008113,0.,-0.00001688,0.00000281,0.,0.00009875,-0.000
 02304,0.,-0.00010871,-0.00005853,-0.00000001,0.00019922,0.00008063,0.,
 0.00027737,-0.00043077,0.00000003,-0.00125958,-0.00046358,-0.00000014,
 0.00006479,-0.00001464,0.,-0.00007027,-0.00013655,-0.00000001,-0.00003
 505,0.00002753,0.,0.12908081,0.28871618,-0.00001618,-0.00002904,-0.038
 74915,-0.00000031,-0.00000137,0.00330059,-0.00000044,-0.00000044,0.007
 11942,0.00000007,0.00000007,-0.00003933,0.00000005,-0.00000078,0.00711
 934,-0.00000139,-0.00000153,0.00330054,0.,-0.00000011,0.00040015,0.000
 00004,0.00000010,-0.00112553,-0.00000001,-0.00000002,0.00021057,0.,0.0
 0000006,-0.00053566,0.,0.,0.00002205,0.,0.,-0.00000130,0.,0.,0.0000165
 3,0.,0.,0.00002205,0.,-0.00000002,0.00021057,0.00000005,0.00000002,-0.
 00053565,-0.00000012,-0.00000008,0.00040015,0.,-0.00000001,0.00009405,
 0.,0.,-0.00001271,0.,0.,0.00009405,0.00001784,0.00003217,0.02669366,-0
 .01209406,0.03074217,0.00000242,-0.13020450,0.12064966,0.00000813,0.01
 008710,-0.01645098,-0.00000139,-0.00162098,-0.00276999,-0.00000059,-0.
 00034031,-0.00079698,-0.00000009,-0.00508588,-0.00186123,-0.00000070,0
 .00135353,-0.00129692,0.00000012,0.00053703,-0.00063315,-0.00000005,0.
 00019029,-0.00017995,-0.00000001,0.00005527,0.00041493,0.00000004,-0.0
 0002868,0.00022189,0.00000002,0.00000210,-0.00001735,0.,0.00013378,-0.
 00006729,0.,-0.00006273,-0.00012553,-0.00000002,-0.00004808,-0.0000443
 9,0.,-0.00014206,-0.00002432,-0.00000002,0.00012952,0.00018144,0.00000
 008,0.00003214,-0.00005281,0.,0.00001212,0.00002503,0.,-0.00002555,0.0
 0058100,0.00000004,0.00104621,-0.00045697,0.00000017,0.13679440,-0.004
 36539,0.00358516,-0.00000018,0.12057437,-0.26919281,-0.00001823,0.0169
 5257,-0.02093347,-0.00000176,-0.00414108,-0.00212398,-0.00000098,-0.00
 073372,0.00005654,0.,-0.00072782,0.00158903,-0.00000055,0.00202666,0.0
 0107513,0.00000062,0.00144003,-0.00054849,-0.00000003,0.00014160,0.000
 14438,0.,-0.00036736,0.00010137,0.,-0.00008112,0.00011274,0.00000001,-
 0.00004254,-0.00003350,0.,-0.00000100,-0.00004916,0.,0.00007349,-0.000
 06979,0.,-0.00028630,-0.00028017,-0.00000002,-0.00016506,-0.00005277,-
 0.00000004,0.00006598,0.00020152,0.00000015,0.00005510,-0.00002540,0.,
 0.00001741,-0.00003023,-0.00000001,-0.00130631,0.00034337,-0.00000006,
 0.00049773,0.00093695,0.00000052,-0.12941102,0.28529765,-0.00000110,0.
 00000138,0.00343594,0.00000812,-0.00001838,-0.03703019,0.00000199,-0.0
 0000310,0.00400728,-0.00000071,-0.00000091,0.00581631,-0.00000011,-0.0
 0000003,-0.00020715,-0.00000061,-0.00000056,0.00665288,0.00000044,0.00
 000044,-0.00414434,0.00000015,-0.00000013,0.00043653,0.00000002,0.,0.0
 0007382,-0.00000003,0.00000006,-0.00009388,0.,0.00000003,-0.00003631,0
 .,0.,0.00003378,0.00000001,-0.00000001,0.00002116,0.,-0.00000002,0.000
 04160,-0.00000002,-0.00000001,-0.00017039,-0.00000004,-0.00000003,0.00
 023472,0.00000007,0.00000015,-0.00124276,0.,0.,0.00003645,0.,-0.000000
 01,0.00010659,-0.00000016,0.00000003,0.00032935,0.00000028,0.00000048,
 -0.00399611,-0.00000823,0.00002065,0.02526019,-0.01209377,-0.00436509,
 -0.00000111,0.00098350,0.00287992,0.00000005,0.00062526,-0.00015978,0.
 00000002,0.00104286,-0.00255767,-0.00000045,-0.01305486,0.00319671,-0.
 00000041,-0.33885691,-0.00345173,-0.00001333,0.00007405,0.00003301,0.0
 0000006,-0.00061948,0.00075258,0.00000003,-0.00007433,-0.00030190,-0.0
 0000002,0.00000710,-0.00007639,-0.00000002,-0.00004509,0.00008398,0.,-
 0.00003417,-0.00002764,0.,0.00002860,-0.00006352,0.,0.00001398,-0.0000
 5576,0.,0.00017321,0.00013146,0.00000001,0.00006844,-0.00035954,-0.000
 00003,0.00082729,0.00171385,0.00000038,0.00056562,-0.00095491,-0.00000
 009,-0.00000486,-0.00007543,-0.00000002,-0.00001138,0.00002923,0.,0.00
 094759,0.00043909,0.00000026,-0.00073108,-0.00012743,-0.00000006,0.360
 20709,0.03074255,0.00358461,0.00000135,0.00174650,-0.00448040,-0.00000
 104,-0.00022305,-0.00090902,-0.00000008,-0.00118659,-0.00478779,-0.000
 00109,-0.03020681,0.00220870,-0.00000149,-0.00337659,-0.06054036,-0.00
 000250,0.00014847,0.00025699,0.00000016,-0.00132059,0.00060802,-0.0000
 0004,-0.00005999,-0.00025392,0.,0.00006433,-0.00020193,-0.00000004,-0.
 00011505,-0.00008743,-0.00000002,-0.00002764,-0.00004164,0.,-0.0001298
 1,0.00005603,0.,0.00024726,0.00007007,0.00000002,-0.00019010,0.0001614
 6,0.,0.00042276,0.00008820,0.00000003,-0.00160969,0.00160138,0.0000005
 1,0.00093239,-0.00024780,-0.00000002,0.00000948,-0.00001235,-0.0000000
 3,-0.00007868,0.00001813,0.,-0.00051558,0.00103559,0.00000048,0.001356
 52,-0.00000049,0.00000003,0.00338864,0.06188497,0.00000238,-0.00000015
 ,0.00343596,-0.00000006,-0.00000099,0.00665280,0.,-0.00000010,-0.00020
 714,-0.00000033,-0.00000114,0.00581637,-0.00000372,0.,0.00400727,-0.00
 001335,-0.00000253,-0.03703020,0.00000008,0.00000015,-0.00124275,-0.00
 000018,0.00000005,0.00043654,0.,-0.00000002,-0.00017040,0.,-0.00000005
 ,0.00023472,-0.00000002,-0.00000001,0.00004160,0.,0.,-0.00014496,-0.00
 000002,0.,0.00002116,0.00000003,0.00000001,-0.00003631,-0.00000002,0.0
 0000001,0.00007382,0.00000006,0.,-0.00009388,0.00000006,0.00000061,-0.
 00414439,0.00000011,-0.00000010,0.00032935,0.,-0.00000003,0.00025657,-
 0.00000001,0.,0.00003645,0.00000017,0.00000053,-0.00399605,0.00000009,
 -0.00000004,0.00032424,0.00001475,0.00000379,0.02526019,-0.00010935,-0
 .00030776,0.,-0.00061248,0.00049705,0.,0.00150075,-0.00244629,-0.00000
 060,0.00053111,0.00018530,0.00000004,0.00000466,0.00006283,0.00000006,
 0.00006424,-0.00005016,-0.00000001,-0.01220659,0.00368450,-0.00000042,
 0.00090091,0.00257600,0.00000012,-0.01308357,-0.00343048,-0.00000107,-
 0.33872193,-0.00346414,-0.00001402,0.00090365,-0.00156889,0.00000002,0
 .00056563,0.00093240,0.00000009,-0.00002098,0.00030008,0.00000003,0.00
 026172,0.00005306,0.00000002,-0.00070556,-0.00077941,-0.00000012,0.000
 04364,0.00030664,0.00000003,0.00001674,-0.00005806,-0.00000001,-0.0000
 3908,-0.00000248,0.,-0.00010373,0.00002526,0.,0.00106702,-0.00046345,0
 .00000027,-0.00008898,-0.00000976,0.,0.00001857,-0.00006150,-0.0000000
 2,-0.00003782,-0.00000466,0.,0.35980943,-0.00026412,-0.00032501,0.0000
 0004,-0.00109949,0.00073652,0.,-0.00091942,-0.00466907,-0.00000137,-0.
 00024114,-0.00065548,-0.00000008,0.00009333,0.00015599,0.00000012,0.00
 007316,-0.00014079,-0.00000003,-0.03184667,0.00257235,-0.00000163,0.00
 103073,-0.00484359,-0.00000072,0.02973802,0.00224882,0.00000120,-0.002
 33619,-0.05973771,-0.00000209,0.00145891,0.00176292,0.00000045,-0.0009
 5491,-0.00024781,-0.00000009,-0.00035731,0.00010221,0.,0.00005601,0.00
 018081,0.00000003,0.00135834,0.00052101,0.00000006,0.00003392,-0.00043
 285,-0.00000003,-0.00002650,0.00001336,-0.00000001,-0.00000248,0.00003
 054,0.,0.00015680,0.00000449,0.,0.00034160,0.00099460,0.00000065,-0.00
 014496,-0.00001090,0.,0.00002340,-0.00003578,-0.00000003,-0.00001227,0
 .00001970,0.,0.00390402,0.06179571,0.00000001,0.00000005,-0.00091021,-
 0.00000014,0.00000006,0.00029430,-0.00000042,-0.00000143,0.00944198,0.
 ,-0.00000005,0.00009870,0.00000005,0.00000012,-0.00109860,0.,-0.000000
 04,0.00025495,-0.00000376,-0.00000004,0.00459327,-0.00000002,-0.000000
 65,0.00344268,0.00000206,-0.00000033,0.00366605,-0.00001396,-0.0000021
 0,-0.03841463,0.00000028,0.00000034,-0.00254108,-0.00000007,0.,0.00032
 935,-0.00000002,0.00000002,-0.00007605,0.00000001,0.00000003,-0.000091
 71,0.00000008,-0.00000002,0.00039947,0.,-0.00000002,-0.00010480,0.,-0.
 00000001,0.00013593,0.,0.,0.00000249,0.,0.,-0.00000185,0.00000034,0.00
 000061,-0.00571087,-0.00000002,0.,-0.00001271,0.,-0.00000003,0.0002565
 6,0.,0.,0.00010658,0.00001560,0.00000355,0.02580972,-0.00014044,0.0000
 9875,0.,0.00016376,0.00005272,0.00000001,-0.00019873,-0.00017494,-0.00
 000004,0.00015522,-0.00006496,0.00000005,-0.00000297,0.00031558,0.0000
 0002,0.00002409,-0.00019173,-0.00000002,-0.00001437,0.00028954,0.00000
 005,-0.00052489,0.00069533,0.00000004,-0.00154090,0.00310248,-0.000000
 08,0.00061160,0.00033395,0.00000004,0.01122716,0.01781959,0.00000195,0
 .00094757,-0.00051561,0.00000016,-0.12936167,-0.12077218,-0.00001489,-
 0.01206495,-0.03096964,-0.00000347,-0.00517048,0.00201797,-0.00000034,
 0.00022368,-0.00149016,-0.00000015,-0.00057106,-0.00005353,0.,-0.00008
 898,-0.00014496,-0.00000002,-0.00003232,0.00003972,0.,0.00003667,0.000
 06494,0.,-0.00000144,-0.00001348,0.,0.00000729,-0.00001081,0.,-0.00000
 291,0.00000327,0.,0.00000985,-0.00000998,0.,0.13526297,0.00009875,-0.0
 0002304,0.,-0.00010871,-0.00005853,-0.00000001,0.00019922,0.00008063,0
 .,-0.00006496,0.00007800,0.00000011,-0.00005858,-0.00011513,-0.0000000
 3,-0.00003029,0.00008113,0.,0.00027737,-0.00043077,0.00000002,0.000695
 32,0.00030171,0.00000006,0.00417541,-0.00212678,-0.00000067,-0.0012595
 8,-0.00046358,-0.00000013,-0.01712461,-0.01988131,-0.00000283,0.000439
 09,0.00103559,0.00000048,-0.12077223,-0.27293905,-0.00002653,0.0039746
 0,0.00341062,0.00000018,0.00094504,0.00150275,-0.00000047,0.00010337,-
 0.00007566,-0.00000004,-0.00004137,0.00012591,0.00000006,-0.00000976,-
 0.00001090,0.,-0.00003505,0.00002753,0.,-0.00007027,-0.00013655,-0.000
 00002,-0.00001348,-0.00001746,0.,0.00000933,-0.00000740,0.,-0.00001688
 ,0.00000281,0.,0.00006479,-0.00001464,0.,0.12908042,0.28871717,0.,0.,0
 .00001653,0.,0.,0.00002205,0.,-0.00000002,0.00021057,0.00000005,0.0000
 0011,-0.00112553,-0.00000001,-0.00000002,0.00021057,0.,0.,0.00002205,0
 .00000005,0.00000002,-0.00053566,0.00000004,0.00000006,-0.00003934,0.,
 -0.00000072,0.00711943,-0.00000011,-0.00000006,0.00040015,-0.00000122,
 -0.00000131,0.00330057,0.00000024,0.00000043,-0.00399612,-0.00001490,-
 0.00002658,-0.03874912,-0.00000027,-0.00000129,0.00330056,-0.00000043,
 -0.00000043,0.00711933,0.,-0.00000011,0.00040015,0.,0.00000006,-0.0005
 3565,0.,0.,-0.00001271,0.,0.,0.00009405,0.,0.,-0.00001271,0.,0.,0.0000
 0176,0.,0.,-0.00000130,0.,0.,-0.00000130,0.,-0.00000001,0.00009405,0.0
 0001641,0.00002942,0.02669364,0.00013378,-0.00006729,0.,-0.00006273,-0
 .00012553,-0.00000002,-0.00004808,-0.00004439,0.,0.00053703,-0.0006331
 5,-0.00000006,0.00019029,-0.00017995,-0.00000001,-0.00002868,0.0002218
 9,0.00000002,-0.00014206,-0.00002433,-0.00000002,-0.00162098,-0.002770
 00,-0.00000057,-0.00034031,-0.00079698,-0.00000008,0.00012952,0.000181
 44,0.00000008,-0.00508592,-0.00186122,-0.00000066,-0.00073107,0.001356
 52,0.00000008,-0.01209411,0.03074219,0.00000212,-0.13020360,0.12064901
 ,0.00000690,0.01008714,-0.01645101,-0.00000123,0.00135353,-0.00129691,
 0.00000012,0.00005527,0.00041493,0.00000004,0.00001857,0.00002340,0.,-
 0.00002555,0.00058100,0.00000004,0.00001211,0.00002502,0.,0.00000729,0
 .00000933,0.,-0.00001541,-0.00001649,0.,0.00000210,-0.00001735,0.,0.00
 003214,-0.00005281,0.,0.00104621,-0.00045696,0.00000017,0.13679352,-0.
 00000100,-0.00004916,0.,0.00007349,-0.00006979,0.,-0.00028630,-0.00028
 017,-0.00000002,0.00144002,-0.00054849,-0.00000003,0.00014161,0.000144
 38,0.00000001,-0.00008112,0.00011274,0.00000001,-0.00016506,-0.0000527
 7,-0.00000003,-0.00414108,-0.00212395,-0.00000089,-0.00073372,0.000056
 54,0.,0.00006598,0.00020152,0.00000013,-0.00072781,0.00158902,-0.00000
 048,-0.00012743,-0.00000049,-0.00000003,-0.00436537,0.00358509,-0.0000
 0017,0.12057376,-0.26919350,-0.00001579,0.01695253,-0.02093343,-0.0000
 0154,0.00202666,0.00107514,0.00000055,-0.00036737,0.00010137,0.,-0.000
 06150,-0.00003578,-0.00000003,-0.00130631,0.00034336,-0.00000005,0.000
 01741,-0.00003023,-0.00000001,-0.00001081,-0.00000740,0.,-0.00001649,-
 0.00006040,0.,-0.00004254,-0.00003350,0.,0.00005510,-0.00002540,0.,0.0
 0049772,0.00093696,0.00000046,-0.12941041,0.28529834,0.,0.,0.00002116,
 0.,-0.00000002,0.00004160,-0.00000001,-0.00000001,-0.00017040,0.000000
 13,-0.00000011,0.00043654,0.00000002,0.,0.00007382,0.,0.00000002,-0.00
 003631,-0.00000004,-0.00000003,0.00023472,-0.00000070,-0.00000085,0.00
 581638,-0.00000006,-0.00000001,-0.00020715,0.00000006,0.00000015,-0.00
 124275,-0.00000056,-0.00000054,0.00665278,-0.00000006,0.00000003,0.000
 32424,-0.00000103,0.00000130,0.00343591,0.00000687,-0.00001574,-0.0370
 3020,0.00000179,-0.00000299,0.00400730,0.00000041,0.00000043,-0.004144
 40,-0.00000003,0.00000003,-0.00009388,-0.00000001,-0.00000003,0.000256
 57,-0.00000013,0.00000002,0.00032935,0.,-0.00000001,0.00010659,0.,0.,-
 0.00000130,0.,0.,-0.00014496,0.,0.,0.00003378,0.,0.,0.00003645,0.00000
 026,0.00000043,-0.00399604,-0.00000691,0.00001794,0.02526021\\0.000004
 01,0.00000545,-0.00000013,-0.00000048,0.00000160,0.00000019,-0.0000330
 8,0.00006022,0.,0.00000405,0.00000625,-0.00000007,0.00006788,0.0000007
 4,0.00000027,0.00000190,0.00000280,-0.00000003,-0.00001304,-0.00002040
 ,-0.00000001,-0.00000322,-0.00000658,-0.00000007,-0.00006895,-0.000002
 46,0.00000010,0.00001110,0.00002102,-0.00000005,-0.00000203,-0.0000001
 1,0.00000008,0.00000487,0.00000357,-0.00000010,-0.00000214,-0.00000659
 ,-0.00000012,-0.00000143,-0.00000305,0.00000007,0.00003413,-0.00005812
 ,0.00000007,0.00001174,0.00001919,0.00000016,-0.00001061,-0.00002003,-
 0.00000041,-0.00000032,-0.00001225,0.00000035,0.00001042,0.00000669,-0
 .00000021,-0.00001018,-0.00000645,0.00000005,-0.00000606,-0.00001053,-
 0.00000007,-0.00000063,-0.00000600,-0.00000012,-0.00000482,-0.00000411
 ,0.00000002,0.00000028,0.00001235,0.00000006,0.00000577,0.00001061,0.0
 0000006,0.00000083,0.00000618,-0.00000007\\\@


 THOSE WHO TRY TO PASS CHEMISTRY OFF AS A NEW SCIENCE
 SHOW HOW LITTLE KNOWLEDGE THEY HAVE OF THE CHARACTER
 AND LITERATURE OF THE ANCIENTS.
   -- NICOLAS LEFEVRE
 "COURS DE CHYMIE" J.-N.LELOUP, PARIS, 1751
 Job cpu time:       0 days  0 hours 23 minutes 29.2 seconds.
 Elapsed time:       0 days  0 hours  5 minutes 52.3 seconds.
 File lengths (MBytes):  RWF=    106 Int=      0 D2E=      0 Chk=      4 Scr=      1
 Normal termination of Gaussian 16 at Sun Jun 21 11:47:53 2020.
