 Entering Gaussian System, Link 0=g16
 Input=tetraphene_opt.gjf
 Output=tetraphene_opt.log
 Initial command:
 /home/qingchun/software/g16A_modified_by_qingchun/g16/l1.exe "/scratch/qingchun/gaussian/Gau-24061.inp" -scrdir="/scratch/qingchun/gaussian/"
 Entering Link 1 = /home/qingchun/software/g16A_modified_by_qingchun/g16/l1.exe PID=     24062.
  
 Copyright (c) 1988,1990,1992,1993,1995,1998,2003,2009,2016,
            Gaussian, Inc.  All Rights Reserved.
  
 This is part of the Gaussian(R) 16 program.  It is based on
 the Gaussian(R) 09 system (copyright 2009, Gaussian, Inc.),
 the Gaussian(R) 03 system (copyright 2003, Gaussian, Inc.),
 the Gaussian(R) 98 system (copyright 1998, Gaussian, Inc.),
 the Gaussian(R) 94 system (copyright 1995, Gaussian, Inc.),
 the Gaussian 92(TM) system (copyright 1992, Gaussian, Inc.),
 the Gaussian 90(TM) system (copyright 1990, Gaussian, Inc.),
 the Gaussian 88(TM) system (copyright 1988, Gaussian, Inc.),
 the Gaussian 86(TM) system (copyright 1986, Carnegie Mellon
 University), and the Gaussian 82(TM) system (copyright 1983,
 Carnegie Mellon University). Gaussian is a federally registered
 trademark of Gaussian, Inc.
  
 This software contains proprietary and confidential information,
 including trade secrets, belonging to Gaussian, Inc.
  
 This software is provided under written license and may be
 used, copied, transmitted, or stored only in accord with that
 written license.
  
 The following legend is applicable only to US Government
 contracts under FAR:
  
                    RESTRICTED RIGHTS LEGEND
  
 Use, reproduction and disclosure by the US Government is
 subject to restrictions as set forth in subparagraphs (a)
 and (c) of the Commercial Computer Software - Restricted
 Rights clause in FAR 52.227-19.
  
 Gaussian, Inc.
 340 Quinnipiac St., Bldg. 40, Wallingford CT 06492
  
  
 ---------------------------------------------------------------
 Warning -- This program may not be used in any manner that
 competes with the business of Gaussian, Inc. or will provide
 assistance to any competitor of Gaussian, Inc.  The licensee
 of this program is prohibited from giving any competitor of
 Gaussian, Inc. access to this program.  By using this program,
 the user acknowledges that Gaussian, Inc. is engaged in the
 business of creating and licensing software in the field of
 computational chemistry and represents and warrants to the
 licensee that it is not a competitor of Gaussian, Inc. and that
 it will not use this program in any manner prohibited above.
 ---------------------------------------------------------------
  

 Cite this work as:
 Gaussian 16, Revision A.03,
 M. J. Frisch, G. W. Trucks, H. B. Schlegel, G. E. Scuseria, 
 M. A. Robb, J. R. Cheeseman, G. Scalmani, V. Barone, 
 G. A. Petersson, H. Nakatsuji, X. Li, M. Caricato, A. V. Marenich, 
 J. Bloino, B. G. Janesko, R. Gomperts, B. Mennucci, H. P. Hratchian, 
 J. V. Ortiz, A. F. Izmaylov, J. L. Sonnenberg, D. Williams-Young, 
 F. Ding, F. Lipparini, F. Egidi, J. Goings, B. Peng, A. Petrone, 
 T. Henderson, D. Ranasinghe, V. G. Zakrzewski, J. Gao, N. Rega, 
 G. Zheng, W. Liang, M. Hada, M. Ehara, K. Toyota, R. Fukuda, 
 J. Hasegawa, M. Ishida, T. Nakajima, Y. Honda, O. Kitao, H. Nakai, 
 T. Vreven, K. Throssell, J. A. Montgomery, Jr., J. E. Peralta, 
 F. Ogliaro, M. J. Bearpark, J. J. Heyd, E. N. Brothers, K. N. Kudin, 
 V. N. Staroverov, T. A. Keith, R. Kobayashi, J. Normand, 
 K. Raghavachari, A. P. Rendell, J. C. Burant, S. S. Iyengar, 
 J. Tomasi, M. Cossi, J. M. Millam, M. Klene, C. Adamo, R. Cammi, 
 J. W. Ochterski, R. L. Martin, K. Morokuma, O. Farkas, 
 J. B. Foresman, and D. J. Fox, Gaussian, Inc., Wallingford CT, 2016.
 
 ******************************************
 Gaussian 16:  ES64L-G16RevA.03 25-Dec-2016
                21-Jun-2020 
 ******************************************
 %nprocshared=4
 Will use up to    4 processors via shared memory.
 %mem=30GB
 %chk=tetraphene_opt.chk
 ----------------------
 # opt freq b3lyp/6-31G
 ----------------------
 1/18=20,19=15,26=3,38=1/1,3;
 2/9=110,12=2,17=6,18=5,40=1/2;
 3/5=1,6=6,11=2,25=1,30=1,71=1,74=-5/1,2,3;
 4//1;
 5/5=2,38=5/2;
 6/7=2,8=2,9=2,10=2,28=1/1;
 7//1,2,3,16;
 1/18=20,19=15,26=3/3(2);
 2/9=110/2;
 99//99;
 2/9=110/2;
 3/5=1,6=6,11=2,25=1,30=1,71=1,74=-5/1,2,3;
 4/5=5,16=3,69=1/1;
 5/5=2,38=5/2;
 7//1,2,3,16;
 1/18=20,19=15,26=3/3(-5);
 2/9=110/2;
 6/7=2,8=2,9=2,10=2,19=2,28=1/1;
 99/9=1/99;
 -----
 6-31G
 -----
 Symbolic Z-matrix:
 Charge =  0 Multiplicity = 1
 C                     0.674     0.373    -0.012 
 C                    -0.674    -0.373     0.012 
 C                     1.973    -0.372     0.348 
 C                    -1.973     0.372    -0.348 
 C                    -0.722    -1.863     0.396 
 C                     2.07      2.609    -0.419 
 C                     3.32      0.373     0.324 
 C                    -1.924     1.863    -0.731 
 C                    -3.32     -0.373    -0.324 
 C                    -2.07     -2.609     0.419 
 C                     3.368     1.864    -0.06 
 C                    -3.368    -1.864     0.06 
 C                     4.627    -0.464     0.132 
 C                     5.985     0.262     0.132 
 C                     6.035     1.801     0.132 
 C                     4.727     2.614     0.132 
 C                     0.722     1.863    -0.395 
 C                    -0.577     2.609    -0.755 
 H                     1.938    -1.428     0.619 
 H                     0.197    -2.391     0.65 
 H                     2.104     3.664    -0.691 
 H                    -2.843     2.391    -0.986 
 H                    -4.239     0.154    -0.578 
 H                    -2.104    -3.664     0.691 
 H                    -4.322    -2.391     0.077 
 H                     4.592    -1.546    -0.001 
 H                     6.911    -0.314     0.132 
 H                     6.996     2.315     0.132 
 H                     4.762     3.695     0.265 
 H                    -0.542     3.664    -1.027 
 

 GradGradGradGradGradGradGradGradGradGradGradGradGradGradGradGradGradGrad
 Berny optimization.
 Initialization pass.
                           ----------------------------
                           !    Initial Parameters    !
                           ! (Angstroms and Degrees)  !
 --------------------------                            --------------------------
 ! Name  Definition              Value          Derivative Info.                !
 --------------------------------------------------------------------------------
 ! R1    R(1,2)                  1.5408         estimate D2E/DX2                !
 ! R2    R(1,3)                  1.5401         estimate D2E/DX2                !
 ! R3    R(1,17)                 1.5392         estimate D2E/DX2                !
 ! R4    R(2,4)                  1.5401         estimate D2E/DX2                !
 ! R5    R(2,5)                  1.5394         estimate D2E/DX2                !
 ! R6    R(3,7)                  1.5395         estimate D2E/DX2                !
 ! R7    R(3,19)                 1.0908         estimate D2E/DX2                !
 ! R8    R(4,8)                  1.5402         estimate D2E/DX2                !
 ! R9    R(4,9)                  1.5395         estimate D2E/DX2                !
 ! R10   R(5,10)                 1.5408         estimate D2E/DX2                !
 ! R11   R(5,20)                 1.0899         estimate D2E/DX2                !
 ! R12   R(6,11)                 1.5391         estimate D2E/DX2                !
 ! R13   R(6,17)                 1.5408         estimate D2E/DX2                !
 ! R14   R(6,21)                 1.09           estimate D2E/DX2                !
 ! R15   R(7,11)                 1.5404         estimate D2E/DX2                !
 ! R16   R(7,13)                 1.5639         estimate D2E/DX2                !
 ! R17   R(8,18)                 1.54           estimate D2E/DX2                !
 ! R18   R(8,22)                 1.0901         estimate D2E/DX2                !
 ! R19   R(9,12)                 1.5404         estimate D2E/DX2                !
 ! R20   R(9,23)                 1.0894         estimate D2E/DX2                !
 ! R21   R(10,12)                1.5391         estimate D2E/DX2                !
 ! R22   R(10,24)                1.09           estimate D2E/DX2                !
 ! R23   R(11,16)                1.564          estimate D2E/DX2                !
 ! R24   R(12,25)                1.09           estimate D2E/DX2                !
 ! R25   R(13,14)                1.5399         estimate D2E/DX2                !
 ! R26   R(13,26)                1.0907         estimate D2E/DX2                !
 ! R27   R(14,15)                1.5398         estimate D2E/DX2                !
 ! R28   R(14,27)                1.0905         estimate D2E/DX2                !
 ! R29   R(15,16)                1.5401         estimate D2E/DX2                !
 ! R30   R(15,28)                1.0898         estimate D2E/DX2                !
 ! R31   R(16,29)                1.0897         estimate D2E/DX2                !
 ! R32   R(17,18)                1.5406         estimate D2E/DX2                !
 ! R33   R(18,30)                1.0901         estimate D2E/DX2                !
 ! A1    A(2,1,3)              120.0024         estimate D2E/DX2                !
 ! A2    A(2,1,17)             119.9892         estimate D2E/DX2                !
 ! A3    A(3,1,17)             120.0083         estimate D2E/DX2                !
 ! A4    A(1,2,4)              120.0024         estimate D2E/DX2                !
 ! A5    A(1,2,5)              119.9846         estimate D2E/DX2                !
 ! A6    A(4,2,5)              120.013          estimate D2E/DX2                !
 ! A7    A(1,3,7)              120.0162         estimate D2E/DX2                !
 ! A8    A(1,3,19)             119.9543         estimate D2E/DX2                !
 ! A9    A(7,3,19)             120.0295         estimate D2E/DX2                !
 ! A10   A(2,4,8)              119.9714         estimate D2E/DX2                !
 ! A11   A(2,4,9)              120.0162         estimate D2E/DX2                !
 ! A12   A(8,4,9)              120.0124         estimate D2E/DX2                !
 ! A13   A(2,5,10)             119.9742         estimate D2E/DX2                !
 ! A14   A(2,5,20)             120.0488         estimate D2E/DX2                !
 ! A15   A(10,5,20)            119.977          estimate D2E/DX2                !
 ! A16   A(11,6,17)            119.9886         estimate D2E/DX2                !
 ! A17   A(11,6,21)            120.0268         estimate D2E/DX2                !
 ! A18   A(17,6,21)            119.9846         estimate D2E/DX2                !
 ! A19   A(3,7,11)             119.9708         estimate D2E/DX2                !
 ! A20   A(3,7,13)             118.3049         estimate D2E/DX2                !
 ! A21   A(11,7,13)            117.4774         estimate D2E/DX2                !
 ! A22   A(4,8,18)             120.0436         estimate D2E/DX2                !
 ! A23   A(4,8,22)             120.0152         estimate D2E/DX2                !
 ! A24   A(18,8,22)            119.9412         estimate D2E/DX2                !
 ! A25   A(4,9,12)             119.9708         estimate D2E/DX2                !
 ! A26   A(4,9,23)             120.0245         estimate D2E/DX2                !
 ! A27   A(12,9,23)            120.0047         estimate D2E/DX2                !
 ! A28   A(5,10,12)            119.999          estimate D2E/DX2                !
 ! A29   A(5,10,24)            119.9742         estimate D2E/DX2                !
 ! A30   A(12,10,24)           120.0268         estimate D2E/DX2                !
 ! A31   A(6,11,7)             120.0268         estimate D2E/DX2                !
 ! A32   A(6,11,16)            121.9595         estimate D2E/DX2                !
 ! A33   A(7,11,16)            117.4271         estimate D2E/DX2                !
 ! A34   A(9,12,10)            120.0268         estimate D2E/DX2                !
 ! A35   A(9,12,25)            119.9427         estimate D2E/DX2                !
 ! A36   A(10,12,25)           120.0305         estimate D2E/DX2                !
 ! A37   A(7,13,14)            118.9929         estimate D2E/DX2                !
 ! A38   A(7,13,26)            121.2714         estimate D2E/DX2                !
 ! A39   A(14,13,26)           119.7357         estimate D2E/DX2                !
 ! A40   A(13,14,15)           119.9902         estimate D2E/DX2                !
 ! A41   A(13,14,27)           119.9877         estimate D2E/DX2                !
 ! A42   A(15,14,27)           120.0221         estimate D2E/DX2                !
 ! A43   A(14,15,16)           120.0026         estimate D2E/DX2                !
 ! A44   A(14,15,28)           120.0013         estimate D2E/DX2                !
 ! A45   A(16,15,28)           119.9961         estimate D2E/DX2                !
 ! A46   A(11,16,15)           119.001          estimate D2E/DX2                !
 ! A47   A(11,16,29)           121.2371         estimate D2E/DX2                !
 ! A48   A(15,16,29)           119.7619         estimate D2E/DX2                !
 ! A49   A(1,17,6)             119.9892         estimate D2E/DX2                !
 ! A50   A(1,17,18)            120.0395         estimate D2E/DX2                !
 ! A51   A(6,17,18)            119.9712         estimate D2E/DX2                !
 ! A52   A(8,18,17)            119.9538         estimate D2E/DX2                !
 ! A53   A(8,18,30)            120.0541         estimate D2E/DX2                !
 ! A54   A(17,18,30)           119.9921         estimate D2E/DX2                !
 ! D1    D(3,1,2,4)            180.0            estimate D2E/DX2                !
 ! D2    D(3,1,2,5)              0.0056         estimate D2E/DX2                !
 ! D3    D(17,1,2,4)             0.0357         estimate D2E/DX2                !
 ! D4    D(17,1,2,5)          -179.9587         estimate D2E/DX2                !
 ! D5    D(2,1,3,7)            179.9944         estimate D2E/DX2                !
 ! D6    D(2,1,3,19)             0.0542         estimate D2E/DX2                !
 ! D7    D(17,1,3,7)            -0.0413         estimate D2E/DX2                !
 ! D8    D(17,1,3,19)         -179.9816         estimate D2E/DX2                !
 ! D9    D(2,1,17,6)           180.0            estimate D2E/DX2                !
 ! D10   D(2,1,17,18)           -0.0249         estimate D2E/DX2                !
 ! D11   D(3,1,17,6)             0.0357         estimate D2E/DX2                !
 ! D12   D(3,1,17,18)         -179.9892         estimate D2E/DX2                !
 ! D13   D(1,2,4,8)             -0.0412         estimate D2E/DX2                !
 ! D14   D(1,2,4,9)           -179.9944         estimate D2E/DX2                !
 ! D15   D(5,2,4,8)            179.9532         estimate D2E/DX2                !
 ! D16   D(5,2,4,9)              0.0            estimate D2E/DX2                !
 ! D17   D(1,2,5,10)          -179.9588         estimate D2E/DX2                !
 ! D18   D(1,2,5,20)            -0.06           estimate D2E/DX2                !
 ! D19   D(4,2,5,10)             0.0468         estimate D2E/DX2                !
 ! D20   D(4,2,5,20)           179.9456         estimate D2E/DX2                !
 ! D21   D(1,3,7,11)             0.0108         estimate D2E/DX2                !
 ! D22   D(1,3,7,13)          -156.2689         estimate D2E/DX2                !
 ! D23   D(19,3,7,11)          179.951          estimate D2E/DX2                !
 ! D24   D(19,3,7,13)           23.6713         estimate D2E/DX2                !
 ! D25   D(2,4,8,18)             0.036          estimate D2E/DX2                !
 ! D26   D(2,4,8,22)           179.9961         estimate D2E/DX2                !
 ! D27   D(9,4,8,18)           179.9892         estimate D2E/DX2                !
 ! D28   D(9,4,8,22)            -0.0507         estimate D2E/DX2                !
 ! D29   D(2,4,9,12)            -0.0108         estimate D2E/DX2                !
 ! D30   D(2,4,9,23)           179.9608         estimate D2E/DX2                !
 ! D31   D(8,4,9,12)          -179.964          estimate D2E/DX2                !
 ! D32   D(8,4,9,23)             0.0076         estimate D2E/DX2                !
 ! D33   D(2,5,10,12)           -0.0828         estimate D2E/DX2                !
 ! D34   D(2,5,10,24)         -179.9936         estimate D2E/DX2                !
 ! D35   D(20,5,10,12)        -179.9817         estimate D2E/DX2                !
 ! D36   D(20,5,10,24)           0.1075         estimate D2E/DX2                !
 ! D37   D(17,6,11,7)           -0.0308         estimate D2E/DX2                !
 ! D38   D(17,6,11,16)        -171.021          estimate D2E/DX2                !
 ! D39   D(21,6,11,7)         -179.9828         estimate D2E/DX2                !
 ! D40   D(21,6,11,16)           9.027          estimate D2E/DX2                !
 ! D41   D(11,6,17,1)            0.0003         estimate D2E/DX2                !
 ! D42   D(11,6,17,18)        -179.9748         estimate D2E/DX2                !
 ! D43   D(21,6,17,1)          179.9524         estimate D2E/DX2                !
 ! D44   D(21,6,17,18)          -0.0227         estimate D2E/DX2                !
 ! D45   D(3,7,11,6)             0.0252         estimate D2E/DX2                !
 ! D46   D(3,7,11,16)          171.4162         estimate D2E/DX2                !
 ! D47   D(13,7,11,6)          156.4965         estimate D2E/DX2                !
 ! D48   D(13,7,11,16)         -32.1125         estimate D2E/DX2                !
 ! D49   D(3,7,13,14)         -178.8653         estimate D2E/DX2                !
 ! D50   D(3,7,13,26)            1.1388         estimate D2E/DX2                !
 ! D51   D(11,7,13,14)          24.2629         estimate D2E/DX2                !
 ! D52   D(11,7,13,26)        -155.7331         estimate D2E/DX2                !
 ! D53   D(4,8,18,17)           -0.0252         estimate D2E/DX2                !
 ! D54   D(4,8,18,30)          179.9394         estimate D2E/DX2                !
 ! D55   D(22,8,18,17)        -179.9853         estimate D2E/DX2                !
 ! D56   D(22,8,18,30)          -0.0207         estimate D2E/DX2                !
 ! D57   D(4,9,12,10)           -0.0252         estimate D2E/DX2                !
 ! D58   D(4,9,12,25)          179.9901         estimate D2E/DX2                !
 ! D59   D(23,9,12,10)        -179.9969         estimate D2E/DX2                !
 ! D60   D(23,9,12,25)           0.0185         estimate D2E/DX2                !
 ! D61   D(5,10,12,9)            0.072          estimate D2E/DX2                !
 ! D62   D(5,10,12,25)        -179.9434         estimate D2E/DX2                !
 ! D63   D(24,10,12,9)         179.9828         estimate D2E/DX2                !
 ! D64   D(24,10,12,25)         -0.0325         estimate D2E/DX2                !
 ! D65   D(6,11,16,15)        -164.5397         estimate D2E/DX2                !
 ! D66   D(6,11,16,29)          15.4743         estimate D2E/DX2                !
 ! D67   D(7,11,16,15)          24.247          estimate D2E/DX2                !
 ! D68   D(7,11,16,29)        -155.739          estimate D2E/DX2                !
 ! D69   D(7,13,14,15)          -8.0688         estimate D2E/DX2                !
 ! D70   D(7,13,14,27)         171.9312         estimate D2E/DX2                !
 ! D71   D(26,13,14,15)        171.9272         estimate D2E/DX2                !
 ! D72   D(26,13,14,27)         -8.0728         estimate D2E/DX2                !
 ! D73   D(13,14,15,16)          0.0            estimate D2E/DX2                !
 ! D74   D(13,14,15,28)        180.0            estimate D2E/DX2                !
 ! D75   D(27,14,15,16)        180.0            estimate D2E/DX2                !
 ! D76   D(27,14,15,28)          0.0            estimate D2E/DX2                !
 ! D77   D(14,15,16,11)         -8.0685         estimate D2E/DX2                !
 ! D78   D(14,15,16,29)        171.9177         estimate D2E/DX2                !
 ! D79   D(28,15,16,11)        171.9315         estimate D2E/DX2                !
 ! D80   D(28,15,16,29)         -8.0823         estimate D2E/DX2                !
 ! D81   D(1,17,18,8)            0.0197         estimate D2E/DX2                !
 ! D82   D(1,17,18,30)        -179.945          estimate D2E/DX2                !
 ! D83   D(6,17,18,8)          179.9948         estimate D2E/DX2                !
 ! D84   D(6,17,18,30)           0.0301         estimate D2E/DX2                !
 --------------------------------------------------------------------------------
 Trust Radius=3.00D-01 FncErr=1.00D-07 GrdErr=1.00D-06 EigMax=2.50D+02 EigMin=1.00D-04
 Number of steps in this run=    180 maximum allowed number of steps=    180.
 GradGradGradGradGradGradGradGradGradGradGradGradGradGradGradGradGradGrad

                          Input orientation:                          
 ---------------------------------------------------------------------
 Center     Atomic      Atomic             Coordinates (Angstroms)
 Number     Number       Type             X           Y           Z
 ---------------------------------------------------------------------
      1          6           0        0.674000    0.373000   -0.012000
      2          6           0       -0.674000   -0.373000    0.012000
      3          6           0        1.973000   -0.372000    0.348000
      4          6           0       -1.973000    0.372000   -0.348000
      5          6           0       -0.722000   -1.863000    0.396000
      6          6           0        2.070000    2.609000   -0.419000
      7          6           0        3.320000    0.373000    0.324000
      8          6           0       -1.924000    1.863000   -0.731000
      9          6           0       -3.320000   -0.373000   -0.324000
     10          6           0       -2.070000   -2.609000    0.419000
     11          6           0        3.368000    1.864000   -0.060000
     12          6           0       -3.368000   -1.864000    0.060000
     13          6           0        4.627000   -0.464000    0.132000
     14          6           0        5.985000    0.262000    0.132000
     15          6           0        6.035000    1.801000    0.132000
     16          6           0        4.727000    2.614000    0.132000
     17          6           0        0.722000    1.863000   -0.395000
     18          6           0       -0.577000    2.609000   -0.755000
     19          1           0        1.938000   -1.428000    0.619000
     20          1           0        0.197000   -2.391000    0.650000
     21          1           0        2.104000    3.664000   -0.691000
     22          1           0       -2.843000    2.391000   -0.986000
     23          1           0       -4.239000    0.154000   -0.578000
     24          1           0       -2.104000   -3.664000    0.691000
     25          1           0       -4.322000   -2.391000    0.077000
     26          1           0        4.592000   -1.546000   -0.001000
     27          1           0        6.911000   -0.314000    0.132000
     28          1           0        6.996000    2.315000    0.132000
     29          1           0        4.762000    3.695000    0.265000
     30          1           0       -0.542000    3.664000   -1.027000
 ---------------------------------------------------------------------
                    Distance matrix (angstroms):
                    1          2          3          4          5
     1  C    0.000000
     2  C    1.540843   0.000000
     3  C    1.540138   2.668240   0.000000
     4  C    2.668240   1.540138   4.075398   0.000000
     5  C    2.667391   1.539435   3.080326   2.667164   0.000000
     6  C    2.667238   4.075245   3.079620   4.621153   5.334630
     7  C    2.667248   4.075033   1.539484   5.335488   4.619810
     8  C    3.080043   2.667254   4.620181   1.540185   4.074065
     9  C    4.075033   2.667248   5.335488   1.539484   3.080277
    10  C    4.075245   2.667238   4.621153   3.079620   1.540827
    11  C    3.079451   4.620294   2.666868   5.552953   5.552168
    12  C    4.620294   3.079451   5.552953   2.666868   2.667248
    13  C    4.043206   5.303139   2.664364   6.670030   5.535223
    14  C    5.314111   6.690284   4.067525   7.973222   7.040538
    15  C    5.549796   7.053464   4.611771   8.148651   7.691010
    16  C    4.633533   6.173117   4.067846   7.081452   7.057253
    17  C    1.539186   2.667238   2.666885   3.080311   4.073560
    18  C    2.667723   3.080588   4.074981   2.668077   4.620023
    19  H    2.288986   2.881669   1.090780   4.412597   2.704543
    20  H    2.881921   2.288670   2.705872   3.652270   1.089890
    21  H    3.651934   4.950643   4.169650   5.251366   6.302029
    22  H    4.170167   3.652432   5.710305   2.289171   4.950261
    23  H    4.950342   3.651719   6.302626   2.288052   4.169683
    24  H    4.950643   3.651934   5.251366   4.169650   2.289225
    25  H    5.710309   4.169467   6.616406   3.651383   3.652471
    26  H    4.362729   5.395077   2.891235   6.848238   5.338229
    27  H    6.276374   7.586179   4.943062   8.923366   7.793060
    28  H    6.615118   8.128262   5.700628   9.189592   8.780256
    29  H    5.274861   6.794316   4.932129   7.535139   7.809147
    30  H    3.652337   4.170649   4.950267   3.653227   5.710084
                    6          7          8          9         10
     6  C    0.000000
     7  C    2.667254   0.000000
     8  C    4.075033   5.552717   0.000000
     9  C    6.160637   6.713123   2.667238   0.000000
    10  C    6.713372   6.160637   4.619805   2.667254   0.000000
    11  C    1.539061   1.540403   5.334370   7.057139   7.057550
    12  C    7.057550   7.057139   4.074475   1.540403   1.539061
    13  C    4.035490   1.563868   7.005376   7.960592   7.037983
    14  C    4.597742   2.674212   8.115433   9.337783   8.556169
    15  C    4.083833   3.073642   8.005891   9.615105   9.231549
    16  C    2.713536   2.653035   6.748672   8.595599   8.576789
    17  C    1.540843   3.080043   2.667248   4.619794   5.334477
    18  C    2.668240   4.620665   1.539968   4.074572   5.552914
    19  H    4.170400   2.289225   5.250545   5.445075   4.183160
    20  H    5.445263   4.183193   4.949982   4.170167   2.289143
    21  H    1.090030   3.652337   4.412481   6.771398   7.616095
    22  H    4.950412   6.615965   1.090124   2.881921   5.250862
    23  H    6.771690   7.615776   2.881547   1.089406   3.651402
    24  H    7.616095   6.771398   5.709835   3.652337   1.090030
    25  H    8.130417   8.130244   4.949726   2.288477   2.288229
    26  H    4.878446   2.325117   7.390023   8.004999   6.759335
    27  H    5.681796   3.661163   9.140094  10.241327   9.274037
    28  H    4.965432   4.161875   8.973041  10.670198  10.320877
    29  H    2.982300   3.621951   7.003630   9.067208   9.297331
    30  H    2.881880   5.250802   2.289354   4.950643   6.616361
                   11         12         13         14         15
    11  C    0.000000
    12  C    7.699745   0.000000
    13  C    2.653588   8.116970   0.000000
    14  C    3.074404   9.591854   1.539883   0.000000
    15  C    2.674644  10.092265   2.666963   1.539812   0.000000
    16  C    1.564048   9.251308   3.079624   2.667296   1.540076
    17  C    2.667122   5.552086   4.576208   5.526310   5.339433
    18  C    4.074442   5.334945   6.108332   7.025313   6.719983
    19  H    3.652835   5.353150   2.897790   4.412650   5.239181
    20  H    5.353911   3.651719   4.858658   6.388089   7.205792
    21  H    2.288200   7.814446   4.907468   5.226193   4.427286
    22  H    6.301724   4.413022   8.074766   9.149653   8.967547
    23  H    7.814018   2.288670   8.915827  10.249192  10.429371
    24  H    7.814446   2.288200   7.473877   9.008767   9.819472
    25  H    8.789761   1.090016   9.154286  10.643105  11.173332
    26  H    3.623501   7.966583   1.090705   2.286264   3.647238
    27  H    4.163340  10.395457   2.288920   1.090528   2.289236
    28  H    3.660963  11.175049   3.651712   2.288434   1.089824
    29  H    2.324096   9.850960   4.163315   3.646767   2.285925
    30  H    4.411710   6.302906   6.715819   7.451081   6.933324
                   16         17         18         19         20
    16  C    0.000000
    17  C    4.108741   0.000000
    18  C    5.377658   1.540622   0.000000
    19  H    4.934922   3.652059   4.950805   0.000000
    20  H    6.770469   4.411821   5.251010   1.989827   0.000000
    21  H    2.942781   2.289354   2.881819   5.260430   6.488294
    22  H    7.655361   3.652025   2.288152   6.326037   5.897934
    23  H    9.324423   5.250304   4.412323   6.487747   5.259573
    24  H    9.294532   6.301857   6.616130   4.619810   2.629983
    25  H   10.341057   6.615228   6.302162   6.356786   4.555183
    26  H    4.164314   5.172371   6.674661   2.728010   4.522593
    27  H    3.652813   6.581852   8.087079   5.119462   7.046989
    28  H    2.288616   6.312298   7.630435   6.311147   8.284996
    29  H    1.089713   4.484799   5.542988   5.860497   7.617535
    30  H    5.496193   2.289262   1.090061   5.898151   6.326253
                   21         22         23         24         25
    21  H    0.000000
    22  H    5.116675   0.000000
    23  H    7.250277   2.668230   0.000000
    24  H    8.562521   6.326253   4.554746   0.000000
    25  H    8.862636   5.117122   2.629247   2.630028   0.000000
    26  H    5.814666   8.470503   9.011631   7.056997   8.954301
    27  H    6.293573  10.183686  11.182380   9.633546  11.423539
    28  H    5.140894   9.902607  11.462951  10.902794  12.257511
    29  H    2.824865   7.816741   9.709136  10.073644  10.935895
    30  H    2.667248   2.629983   5.117569   7.687064   7.222897
                   26         27         28         29         30
    26  H    0.000000
    27  H    2.629311   0.000000
    28  H    4.550190   2.630374   0.000000
    29  H    5.250499   4.550601   2.629229   0.000000
    30  H    7.386118   8.527308   7.744968   5.459180   0.000000
 Stoichiometry    C18H12
 Framework group  C1[X(C18H12)]
 Deg. of freedom    84
 Full point group                 C1      NOp   1
 Largest Abelian subgroup         C1      NOp   1
 Largest concise Abelian subgroup C1      NOp   1
                         Standard orientation:                         
 ---------------------------------------------------------------------
 Center     Atomic      Atomic             Coordinates (Angstroms)
 Number     Number       Type             X           Y           Z
 ---------------------------------------------------------------------
      1          6           0        0.392222   -0.000884   -0.053036
      2          6           0        1.890211   -0.361440   -0.037994
      3          6           0       -0.667080   -1.114777   -0.148676
      4          6           0        2.949514    0.752453    0.057646
      5          6           0        2.327665   -1.835203   -0.118708
      6          6           0       -1.543246    1.833220    0.011659
      7          6           0       -2.163837   -0.754906   -0.163600
      8          6           0        2.510802    2.226686    0.137266
      9          6           0        4.446270    0.392582    0.072571
     10          6           0        3.825679   -2.195544   -0.102689
     11          6           0       -2.601560    0.719800   -0.083086
     12          6           0        4.883993   -1.082123   -0.007944
     13          6           0       -3.191792   -1.838980    0.298757
     14          6           0       -4.694644   -1.504997    0.265106
     15          6           0       -5.157149   -0.068057   -0.038728
     16          6           0       -4.116803    1.034899   -0.308911
     17          6           0       -0.045257    1.472665    0.026702
     18          6           0        1.013776    2.587499    0.122141
     19          1           0       -0.356071   -2.158770   -0.204838
     20          1           0        1.578513   -2.623981   -0.185510
     21          1           0       -1.852997    2.876743    0.068915
     22          1           0        3.259980    3.015679    0.205045
     23          1           0        5.195691    1.180418    0.139573
     24          1           0        4.135430   -3.239067   -0.159945
     25          1           0        5.943885   -1.336397    0.002496
     26          1           0       -2.863333   -2.820701    0.642232
     27          1           0       -5.431041   -2.286247    0.456470
     28          1           0       -6.220719    0.168515   -0.062589
     29          1           0       -4.444993    2.015679   -0.652186
     30          1           0        0.703062    3.630765    0.179480
 ---------------------------------------------------------------------
 Rotational constants (GHZ):           0.9778417           0.2214679           0.1813316
 Standard basis: 6-31G (6D, 7F)
 There are   186 symmetry adapted cartesian basis functions of A   symmetry.
 There are   186 symmetry adapted basis functions of A   symmetry.
   186 basis functions,   444 primitive gaussians,   186 cartesian basis functions
    60 alpha electrons       60 beta electrons
       nuclear repulsion energy      1043.8712573461 Hartrees.
 NAtoms=   30 NActive=   30 NUniq=   30 SFac= 1.00D+00 NAtFMM=   60 NAOKFM=F Big=F
 Integral buffers will be    131072 words long.
 Raffenetti 2 integral format.
 Two-electron integral symmetry is turned on.
 One-electron integrals computed using PRISM.
 NBasis=   186 RedAO= T EigKep=  8.00D-04  NBF=   186
 NBsUse=   186 1.00D-06 EigRej= -1.00D+00 NBFU=   186
 ExpMin= 1.61D-01 ExpMax= 3.05D+03 ExpMxC= 4.57D+02 IAcc=3 IRadAn=         5 AccDes= 0.00D+00
 Harris functional with IExCor=  402 and IRadAn=       5 diagonalized for initial guess.
 HarFok:  IExCor=  402 AccDes= 0.00D+00 IRadAn=         5 IDoV= 1 UseB2=F ITyADJ=14
 ICtDFT=  3500011 ScaDFX=  1.000000  1.000000  1.000000  1.000000
 FoFCou: FMM=F IPFlag=           0 FMFlag=      100000 FMFlg1=           0
         NFxFlg=           0 DoJE=T BraDBF=F KetDBF=T FulRan=T
         wScrn=  0.000000 ICntrl=       500 IOpCl=  0 I1Cent=   200000004 NGrid=           0
         NMat0=    1 NMatS0=      1 NMatT0=    0 NMatD0=    1 NMtDS0=    0 NMtDT0=    0
 Petite list used in FoFCou.
 Keep R1 ints in memory in canonical form, NReq=155286646.
 Requested convergence on RMS density matrix=1.00D-08 within 128 cycles.
 Requested convergence on MAX density matrix=1.00D-06.
 Requested convergence on             energy=1.00D-06.
 No special actions if energy rises.
 Integral accuracy reduced to 1.0D-05 until final iterations.
 Initial convergence to 1.0D-05 achieved.  Increase integral accuracy.
 SCF Done:  E(RB3LYP) =  -692.751189165     A.U. after   16 cycles
            NFock= 16  Conv=0.65D-08     -V/T= 2.0130

 **********************************************************************

            Population analysis using the SCF density.

 **********************************************************************

 Orbital symmetries:
       Occupied  (A) (A) (A) (A) (A) (A) (A) (A) (A) (A) (A) (A)
                 (A) (A) (A) (A) (A) (A) (A) (A) (A) (A) (A) (A)
                 (A) (A) (A) (A) (A) (A) (A) (A) (A) (A) (A) (A)
                 (A) (A) (A) (A) (A) (A) (A) (A) (A) (A) (A) (A)
                 (A) (A) (A) (A) (A) (A) (A) (A) (A) (A) (A) (A)
       Virtual   (A) (A) (A) (A) (A) (A) (A) (A) (A) (A) (A) (A)
                 (A) (A) (A) (A) (A) (A) (A) (A) (A) (A) (A) (A)
                 (A) (A) (A) (A) (A) (A) (A) (A) (A) (A) (A) (A)
                 (A) (A) (A) (A) (A) (A) (A) (A) (A) (A) (A) (A)
                 (A) (A) (A) (A) (A) (A) (A) (A) (A) (A) (A) (A)
                 (A) (A) (A) (A) (A) (A) (A) (A) (A) (A) (A) (A)
                 (A) (A) (A) (A) (A) (A) (A) (A) (A) (A) (A) (A)
                 (A) (A) (A) (A) (A) (A) (A) (A) (A) (A) (A) (A)
                 (A) (A) (A) (A) (A) (A) (A) (A) (A) (A) (A) (A)
                 (A) (A) (A) (A) (A) (A) (A) (A) (A) (A) (A) (A)
                 (A) (A) (A) (A) (A) (A)
 The electronic state is 1-A.
 Alpha  occ. eigenvalues --  -10.23962 -10.23902 -10.23876 -10.23796 -10.23779
 Alpha  occ. eigenvalues --  -10.23779 -10.22505 -10.22481 -10.22374 -10.22349
 Alpha  occ. eigenvalues --  -10.22347 -10.22335 -10.22325 -10.22319 -10.22313
 Alpha  occ. eigenvalues --  -10.22221 -10.22125 -10.21997  -0.83103  -0.80752
 Alpha  occ. eigenvalues --   -0.77941  -0.75838  -0.74323  -0.72900  -0.71525
 Alpha  occ. eigenvalues --   -0.69503  -0.67908  -0.62925  -0.61508  -0.59278
 Alpha  occ. eigenvalues --   -0.58746  -0.57749  -0.55120  -0.51498  -0.49497
 Alpha  occ. eigenvalues --   -0.48362  -0.47476  -0.46015  -0.44787  -0.43556
 Alpha  occ. eigenvalues --   -0.42229  -0.41568  -0.40745  -0.39825  -0.39202
 Alpha  occ. eigenvalues --   -0.38188  -0.37666  -0.36578  -0.35540  -0.35008
 Alpha  occ. eigenvalues --   -0.33962  -0.33208  -0.32284  -0.30529  -0.28118
 Alpha  occ. eigenvalues --   -0.26372  -0.24828  -0.23162  -0.21023  -0.18900
 Alpha virt. eigenvalues --   -0.08123  -0.05835  -0.03017  -0.01771   0.00386
 Alpha virt. eigenvalues --    0.02195   0.05926   0.08642   0.09166   0.10374
 Alpha virt. eigenvalues --    0.10905   0.11906   0.12389   0.12878   0.13484
 Alpha virt. eigenvalues --    0.14026   0.14154   0.15087   0.15440   0.15770
 Alpha virt. eigenvalues --    0.16594   0.17457   0.18648   0.20171   0.20883
 Alpha virt. eigenvalues --    0.22403   0.22859   0.23893   0.24882   0.25862
 Alpha virt. eigenvalues --    0.27442   0.28193   0.30033   0.30788   0.32924
 Alpha virt. eigenvalues --    0.35164   0.37076   0.38565   0.42051   0.42457
 Alpha virt. eigenvalues --    0.47425   0.49519   0.51134   0.51314   0.52964
 Alpha virt. eigenvalues --    0.53321   0.54507   0.54757   0.55176   0.55679
 Alpha virt. eigenvalues --    0.56250   0.56944   0.57480   0.57626   0.57957
 Alpha virt. eigenvalues --    0.58367   0.58791   0.59738   0.60106   0.60730
 Alpha virt. eigenvalues --    0.61120   0.61614   0.62517   0.62702   0.63032
 Alpha virt. eigenvalues --    0.63156   0.64350   0.64475   0.65420   0.67694
 Alpha virt. eigenvalues --    0.70211   0.71204   0.71650   0.75529   0.80125
 Alpha virt. eigenvalues --    0.80836   0.81401   0.81841   0.82642   0.85752
 Alpha virt. eigenvalues --    0.86613   0.87265   0.87893   0.88468   0.88945
 Alpha virt. eigenvalues --    0.89588   0.91372   0.92326   0.92956   0.93932
 Alpha virt. eigenvalues --    0.94903   0.95784   0.96486   0.97570   0.98589
 Alpha virt. eigenvalues --    0.99482   1.01617   1.03378   1.04007   1.05631
 Alpha virt. eigenvalues --    1.07005   1.07018   1.08856   1.09267   1.10830
 Alpha virt. eigenvalues --    1.13291   1.13959   1.14900   1.16478   1.19614
 Alpha virt. eigenvalues --    1.20066   1.24024   1.25377   1.30493   1.35234
 Alpha virt. eigenvalues --    1.36751   1.39322   1.40421   1.42476   1.44052
 Alpha virt. eigenvalues --    1.45750   1.50027   1.53386   1.74513   1.79673
 Alpha virt. eigenvalues --    1.82148
          Condensed to atoms (all electrons):
               1          2          3          4          5          6
     1  C    5.001428   0.351834   0.440002  -0.034214  -0.037920  -0.035654
     2  C    0.351834   4.981678  -0.034734   0.440945   0.447391   0.003171
     3  C    0.440002  -0.034734   5.136086   0.002337  -0.006003  -0.020126
     4  C   -0.034214   0.440945   0.002337   4.893176  -0.038087   0.000160
     5  C   -0.037920   0.447391  -0.006003  -0.038087   5.023004  -0.000056
     6  C   -0.035654   0.003171  -0.020126   0.000160  -0.000056   5.123880
     7  C   -0.027633   0.002297   0.414424  -0.000051   0.000271  -0.041023
     8  C   -0.013056  -0.038670   0.000097   0.402759   0.002760   0.001955
     9  C    0.002983  -0.031667  -0.000057   0.437250  -0.018634  -0.000001
    10  C    0.002311  -0.029592   0.000210  -0.012303   0.477300   0.000000
    11  C   -0.007418   0.000181  -0.043195   0.000002  -0.000003   0.429168
    12  C    0.000206  -0.012735  -0.000001  -0.032574  -0.036948   0.000000
    13  C    0.002107  -0.000067  -0.033595   0.000000   0.000006   0.003298
    14  C   -0.000071   0.000000   0.002328   0.000000   0.000000   0.000170
    15  C    0.000003   0.000000   0.000148   0.000000   0.000000   0.001895
    16  C    0.000135  -0.000001   0.003423   0.000000   0.000000  -0.030627
    17  C    0.421631  -0.033828  -0.039902  -0.008916   0.002433   0.430875
    18  C   -0.038757  -0.013814   0.002884  -0.032492   0.000094  -0.032213
    19  H   -0.032672  -0.003670   0.347901   0.000010   0.000796   0.000279
    20  H   -0.004072  -0.034204   0.000823   0.002161   0.349709   0.000001
    21  H    0.002026  -0.000079   0.000227   0.000005   0.000000   0.352048
    22  H    0.000345   0.002122   0.000002  -0.034805  -0.000077  -0.000068
    23  H   -0.000083   0.002064   0.000000  -0.035143   0.000261   0.000000
    24  H   -0.000083   0.002050   0.000006   0.000302  -0.031219   0.000000
    25  H    0.000000   0.000236   0.000000   0.002105   0.002456   0.000000
    26  H    0.000092   0.000001  -0.002073   0.000000   0.000000  -0.000080
    27  H    0.000001   0.000000  -0.000062   0.000000   0.000000   0.000001
    28  H    0.000000   0.000000   0.000000   0.000000   0.000000  -0.000056
    29  H    0.000002   0.000000  -0.000072   0.000000   0.000000  -0.001609
    30  H    0.002118   0.000336  -0.000076   0.001761   0.000002  -0.001447
               7          8          9         10         11         12
     1  C   -0.027633  -0.013056   0.002983   0.002311  -0.007418   0.000206
     2  C    0.002297  -0.038670  -0.031667  -0.029592   0.000181  -0.012735
     3  C    0.414424   0.000097  -0.000057   0.000210  -0.043195  -0.000001
     4  C   -0.000051   0.402759   0.437250  -0.012303   0.000002  -0.032574
     5  C    0.000271   0.002760  -0.018634   0.477300  -0.000003  -0.036948
     6  C   -0.041023   0.001955  -0.000001   0.000000   0.429168   0.000000
     7  C    4.938576   0.000004   0.000000  -0.000002   0.422959   0.000000
     8  C    0.000004   5.052706  -0.035081   0.000138  -0.000073   0.002163
     9  C    0.000000  -0.035081   5.035792  -0.035743   0.000000   0.479747
    10  C   -0.000002   0.000138  -0.035743   4.972266   0.000000   0.467961
    11  C    0.422959  -0.000073   0.000000   0.000000   4.921851   0.000000
    12  C    0.000000   0.002163   0.479747   0.467961   0.000000   4.967328
    13  C    0.401218   0.000000   0.000000   0.000000  -0.035015   0.000000
    14  C   -0.032141   0.000000   0.000000   0.000000  -0.011599   0.000000
    15  C   -0.011230   0.000000   0.000000   0.000000  -0.031208   0.000000
    16  C   -0.034356   0.000000   0.000000   0.000000   0.400845   0.000000
    17  C   -0.009216  -0.032423   0.000162  -0.000057  -0.028150   0.000002
    18  C    0.000148   0.490157   0.002108   0.000006   0.002113  -0.000073
    19  H   -0.031386   0.000003   0.000001   0.000037   0.002185   0.000000
    20  H    0.000129  -0.000076   0.000249  -0.031237   0.000000   0.002134
    21  H    0.002384   0.000056   0.000000   0.000000  -0.033103   0.000000
    22  H    0.000000   0.352539  -0.001429   0.000003   0.000000   0.000052
    23  H    0.000000  -0.001355   0.352790   0.002236   0.000000  -0.031986
    24  H    0.000000   0.000001   0.002382   0.352889   0.000000  -0.033930
    25  H    0.000000  -0.000064  -0.031644  -0.034103   0.000000   0.353594
    26  H   -0.035985   0.000000   0.000000   0.000000   0.002121   0.000000
    27  H    0.002151   0.000000   0.000000   0.000000   0.000172   0.000000
    28  H    0.000161   0.000000   0.000000   0.000000   0.002190   0.000000
    29  H    0.001960   0.000000   0.000000   0.000000  -0.035553   0.000000
    30  H    0.000004  -0.028704  -0.000068   0.000000   0.000064   0.000000
              13         14         15         16         17         18
     1  C    0.002107  -0.000071   0.000003   0.000135   0.421631  -0.038757
     2  C   -0.000067   0.000000   0.000000  -0.000001  -0.033828  -0.013814
     3  C   -0.033595   0.002328   0.000148   0.003423  -0.039902   0.002884
     4  C    0.000000   0.000000   0.000000   0.000000  -0.008916  -0.032492
     5  C    0.000006   0.000000   0.000000   0.000000   0.002433   0.000094
     6  C    0.003298   0.000170   0.001895  -0.030627   0.430875  -0.032213
     7  C    0.401218  -0.032141  -0.011230  -0.034356  -0.009216   0.000148
     8  C    0.000000   0.000000   0.000000   0.000000  -0.032423   0.490157
     9  C    0.000000   0.000000   0.000000   0.000000   0.000162   0.002108
    10  C    0.000000   0.000000   0.000000   0.000000  -0.000057   0.000006
    11  C   -0.035015  -0.011599  -0.031208   0.400845  -0.028150   0.002113
    12  C    0.000000   0.000000   0.000000   0.000000   0.000002  -0.000073
    13  C    5.064222   0.483612  -0.034578  -0.021120   0.000106  -0.000001
    14  C    0.483612   4.988918   0.446280  -0.036186   0.000003   0.000000
    15  C   -0.034578   0.446280   4.981833   0.488257  -0.000063   0.000000
    16  C   -0.021120  -0.036186   0.488257   5.058143   0.002000  -0.000047
    17  C    0.000106   0.000003  -0.000063   0.002000   4.909080   0.405095
    18  C   -0.000001   0.000000   0.000000  -0.000047   0.405095   5.045830
    19  H   -0.001702   0.000056   0.000003  -0.000080   0.002018  -0.000076
    20  H   -0.000004   0.000000   0.000000   0.000000   0.000006   0.000002
    21  H   -0.000073   0.000000   0.000048  -0.001404  -0.033554  -0.001363
    22  H    0.000000   0.000000   0.000000   0.000000   0.001780  -0.028709
    23  H    0.000000   0.000000   0.000000   0.000000   0.000005   0.000058
    24  H    0.000000   0.000000   0.000000   0.000000   0.000000   0.000000
    25  H    0.000000   0.000000   0.000000   0.000000   0.000000   0.000000
    26  H    0.355895  -0.032830   0.002331   0.000188   0.000003   0.000000
    27  H   -0.032654   0.353754  -0.034717   0.002602   0.000000   0.000000
    28  H    0.002601  -0.034690   0.353887  -0.032263   0.000000   0.000000
    29  H    0.000181   0.002380  -0.033039   0.355702   0.000062   0.000001
    30  H    0.000000   0.000000   0.000000   0.000001  -0.034659   0.352874
              19         20         21         22         23         24
     1  C   -0.032672  -0.004072   0.002026   0.000345  -0.000083  -0.000083
     2  C   -0.003670  -0.034204  -0.000079   0.002122   0.002064   0.002050
     3  C    0.347901   0.000823   0.000227   0.000002   0.000000   0.000006
     4  C    0.000010   0.002161   0.000005  -0.034805  -0.035143   0.000302
     5  C    0.000796   0.349709   0.000000  -0.000077   0.000261  -0.031219
     6  C    0.000279   0.000001   0.352048  -0.000068   0.000000   0.000000
     7  C   -0.031386   0.000129   0.002384   0.000000   0.000000   0.000000
     8  C    0.000003  -0.000076   0.000056   0.352539  -0.001355   0.000001
     9  C    0.000001   0.000249   0.000000  -0.001429   0.352790   0.002382
    10  C    0.000037  -0.031237   0.000000   0.000003   0.002236   0.352889
    11  C    0.002185   0.000000  -0.033103   0.000000   0.000000   0.000000
    12  C    0.000000   0.002134   0.000000   0.000052  -0.031986  -0.033930
    13  C   -0.001702  -0.000004  -0.000073   0.000000   0.000000   0.000000
    14  C    0.000056   0.000000   0.000000   0.000000   0.000000   0.000000
    15  C    0.000003   0.000000   0.000048   0.000000   0.000000   0.000000
    16  C   -0.000080   0.000000  -0.001404   0.000000   0.000000   0.000000
    17  C    0.002018   0.000006  -0.033554   0.001780   0.000005   0.000000
    18  C   -0.000076   0.000002  -0.001363  -0.028709   0.000058   0.000000
    19  H    0.572882   0.004980   0.000005   0.000000   0.000000   0.000000
    20  H    0.004980   0.577643   0.000000   0.000001   0.000004  -0.001166
    21  H    0.000005   0.000000   0.570452  -0.000001   0.000000   0.000000
    22  H    0.000000   0.000001  -0.000001   0.569390   0.002896   0.000000
    23  H    0.000000   0.000004   0.000000   0.002896   0.574244  -0.000082
    24  H    0.000000  -0.001166   0.000000   0.000000  -0.000082   0.577386
    25  H    0.000000  -0.000081   0.000000  -0.000001  -0.001335  -0.001433
    26  H    0.002452   0.000002   0.000001   0.000000   0.000000   0.000000
    27  H   -0.000001   0.000000   0.000000   0.000000   0.000000   0.000000
    28  H    0.000000   0.000000   0.000000   0.000000   0.000000   0.000000
    29  H    0.000001   0.000000   0.001958   0.000000   0.000000   0.000000
    30  H    0.000001   0.000000   0.002849  -0.001021   0.000000   0.000000
              25         26         27         28         29         30
     1  C    0.000000   0.000092   0.000001   0.000000   0.000002   0.002118
     2  C    0.000236   0.000001   0.000000   0.000000   0.000000   0.000336
     3  C    0.000000  -0.002073  -0.000062   0.000000  -0.000072  -0.000076
     4  C    0.002105   0.000000   0.000000   0.000000   0.000000   0.001761
     5  C    0.002456   0.000000   0.000000   0.000000   0.000000   0.000002
     6  C    0.000000  -0.000080   0.000001  -0.000056  -0.001609  -0.001447
     7  C    0.000000  -0.035985   0.002151   0.000161   0.001960   0.000004
     8  C   -0.000064   0.000000   0.000000   0.000000   0.000000  -0.028704
     9  C   -0.031644   0.000000   0.000000   0.000000   0.000000  -0.000068
    10  C   -0.034103   0.000000   0.000000   0.000000   0.000000   0.000000
    11  C    0.000000   0.002121   0.000172   0.002190  -0.035553   0.000064
    12  C    0.353594   0.000000   0.000000   0.000000   0.000000   0.000000
    13  C    0.000000   0.355895  -0.032654   0.002601   0.000181   0.000000
    14  C    0.000000  -0.032830   0.353754  -0.034690   0.002380   0.000000
    15  C    0.000000   0.002331  -0.034717   0.353887  -0.033039   0.000000
    16  C    0.000000   0.000188   0.002602  -0.032263   0.355702   0.000001
    17  C    0.000000   0.000003   0.000000   0.000000   0.000062  -0.034659
    18  C    0.000000   0.000000   0.000000   0.000000   0.000001   0.352874
    19  H    0.000000   0.002452  -0.000001   0.000000   0.000001   0.000001
    20  H   -0.000081   0.000002   0.000000   0.000000   0.000000   0.000000
    21  H    0.000000   0.000001   0.000000   0.000000   0.001958   0.002849
    22  H   -0.000001   0.000000   0.000000   0.000000   0.000000  -0.001021
    23  H   -0.001335   0.000000   0.000000   0.000000   0.000000   0.000000
    24  H   -0.001433   0.000000   0.000000   0.000000   0.000000   0.000000
    25  H    0.577914   0.000000   0.000000   0.000000   0.000000   0.000000
    26  H    0.000000   0.573052  -0.001500  -0.000084   0.000004   0.000000
    27  H    0.000000  -0.001500   0.581350  -0.001474  -0.000082   0.000000
    28  H    0.000000  -0.000084  -0.001474   0.579556  -0.001502   0.000000
    29  H    0.000000   0.000004  -0.000082  -0.001502   0.573427   0.000001
    30  H    0.000000   0.000000   0.000000   0.000000   0.000001   0.568910
 Mulliken charges:
               1
     1  C    0.004409
     2  C   -0.001245
     3  C   -0.171000
     4  C    0.045611
     5  C   -0.137536
     6  C   -0.183942
     7  C    0.036339
     8  C   -0.155836
     9  C   -0.159140
    10  C   -0.132320
    11  C    0.041465
    12  C   -0.124941
    13  C   -0.154437
    14  C   -0.129984
    15  C   -0.129849
    16  C   -0.155209
    17  C    0.045507
    18  C   -0.153823
    19  H    0.135977
    20  H    0.132997
    21  H    0.137519
    22  H    0.136980
    23  H    0.135426
    24  H    0.132896
    25  H    0.132355
    26  H    0.136410
    27  H    0.130462
    28  H    0.131675
    29  H    0.136178
    30  H    0.137056
 Sum of Mulliken charges =   0.00000
 Mulliken charges with hydrogens summed into heavy atoms:
               1
     1  C    0.004409
     2  C   -0.001245
     3  C   -0.035022
     4  C    0.045611
     5  C   -0.004539
     6  C   -0.046423
     7  C    0.036339
     8  C   -0.018855
     9  C   -0.023714
    10  C    0.000576
    11  C    0.041465
    12  C    0.007414
    13  C   -0.018027
    14  C    0.000478
    15  C    0.001826
    16  C   -0.019031
    17  C    0.045507
    18  C   -0.016767
 Electronic spatial extent (au):  <R**2>=           5673.6644
 Charge=              0.0000 electrons
 Dipole moment (field-independent basis, Debye):
    X=              0.2172    Y=             -0.0273    Z=              0.1549  Tot=              0.2682
 Quadrupole moment (field-independent basis, Debye-Ang):
   XX=            -85.6844   YY=            -87.0389   ZZ=           -114.7376
   XY=             -0.2218   XZ=              0.1006   YZ=             -0.9389
 Traceless Quadrupole moment (field-independent basis, Debye-Ang):
   XX=             10.1359   YY=              8.7814   ZZ=            -18.9173
   XY=             -0.2218   XZ=              0.1006   YZ=             -0.9389
 Octapole moment (field-independent basis, Debye-Ang**2):
  XXX=              4.2102  YYY=              1.4830  ZZZ=              0.1922  XYY=              3.8180
  XXY=             -1.1089  XXZ=              2.6941  XZZ=             -2.0649  YZZ=             -0.4438
  YYZ=              3.2559  XYZ=             11.3801
 Hexadecapole moment (field-independent basis, Debye-Ang**3):
 XXXX=          -5416.7374 YYYY=          -1361.8399 ZZZZ=           -142.8073 XXXY=              1.7659
 XXXZ=              7.2495 YYYX=            -11.0120 YYYZ=             -2.7262 ZZZX=              0.2035
 ZZZY=             -2.3377 XXYY=          -1142.3632 XXZZ=          -1210.4962 YYZZ=           -308.8790
 XXYZ=            -29.7426 YYXZ=             -8.8445 ZZXY=              0.9983
 N-N= 1.043871257346D+03 E-N=-3.689734673208D+03  KE= 6.838317650896D+02
 Calling FoFJK, ICntrl=      2127 FMM=F ISym2X=0 I1Cent= 0 IOpClX= 0 NMat=1 NMatS=1 NMatT=0.
 ***** Axes restored to original set *****
 -------------------------------------------------------------------
 Center     Atomic                   Forces (Hartrees/Bohr)
 Number     Number              X              Y              Z
 -------------------------------------------------------------------
      1        6           0.026898315   -0.007644510    0.009986553
      2        6          -0.013847539   -0.017110473    0.003175114
      3        6          -0.003461922    0.086298754   -0.022654156
      4        6          -0.007530774   -0.010284311    0.001518554
      5        6          -0.086275177    0.030051690   -0.018970770
      6        6          -0.004117233   -0.082088007    0.026223264
      7        6          -0.008610651   -0.027874719   -0.055553863
      8        6           0.096972968   -0.007505509    0.014289858
      9        6           0.066858315   -0.058142570    0.023715915
     10        6           0.013577478    0.087502791   -0.020978893
     11        6          -0.008761220    0.019449498    0.024839256
     12        6           0.073321181    0.052898447   -0.004587755
     13        6           0.035489704    0.091263478    0.021534948
     14        6          -0.087906266    0.025791833   -0.004382626
     15        6          -0.091256466   -0.021033817    0.006255766
     16        6           0.026690962   -0.090922868   -0.015905998
     17        6           0.019303896    0.011656160   -0.002490825
     18        6          -0.043898274   -0.086332463    0.016098770
     19        1           0.003293291    0.006608622   -0.003671010
     20        1          -0.006784831    0.001512878   -0.001215034
     21        1          -0.000307809   -0.003983589    0.002135492
     22        1           0.003648824   -0.002425747    0.001268367
     23        1           0.003577703   -0.001344969    0.000755456
     24        1           0.000402857    0.004212925   -0.001057926
     25        1           0.003696722    0.002239755   -0.000130862
     26        1          -0.001857430    0.004081189    0.007731319
     27        1          -0.003894108    0.002135687   -0.004607533
     28        1          -0.003765882   -0.001424240    0.003921850
     29        1          -0.001610480   -0.003119930   -0.008438979
     30        1           0.000153843   -0.004465984    0.001195750
 -------------------------------------------------------------------
 Cartesian Forces:  Max     0.096972968 RMS     0.035332699

 GradGradGradGradGradGradGradGradGradGradGradGradGradGradGradGradGradGrad
 Berny optimization.
 FormGI is forming the generalized inverse of G from B-inverse, IUseBI=4.
 Internal  Forces:  Max     0.115509517 RMS     0.030280146
 Search for a local minimum.
 Step number   1 out of a maximum of  180
 All quantities printed in internal units (Hartrees-Bohrs-Radians)
 Mixed Optimization -- RFO/linear search
 Second derivative matrix not updated -- first step.
 ITU=  0
     Eigenvalues ---    0.00233   0.00233   0.00233   0.00234   0.00234
     Eigenvalues ---    0.00235   0.00235   0.00236   0.00237   0.00237
     Eigenvalues ---    0.00237   0.00237   0.00237   0.00238   0.00238
     Eigenvalues ---    0.00239   0.00239   0.00240   0.00240   0.00240
     Eigenvalues ---    0.00242   0.00242   0.00244   0.00274   0.00316
     Eigenvalues ---    0.00484   0.00634   0.16000   0.16000   0.16000
     Eigenvalues ---    0.16000   0.16000   0.16000   0.16000   0.16000
     Eigenvalues ---    0.16000   0.16000   0.16000   0.16000   0.21375
     Eigenvalues ---    0.21914   0.22000   0.22308   0.22431   0.22680
     Eigenvalues ---    0.22984   0.23652   0.24334   0.24560   0.24734
     Eigenvalues ---    0.25000   0.26037   0.26274   0.27020   0.27407
     Eigenvalues ---    0.27605   0.27713   0.27801   0.28056   0.28093
     Eigenvalues ---    0.28223   0.28443   0.28465   0.28472   0.28501
     Eigenvalues ---    0.28505   0.28520   0.28526   0.28535   0.28543
     Eigenvalues ---    0.28580   0.28583   0.34723   0.34731   0.34752
     Eigenvalues ---    0.34798   0.34806   0.34809   0.34809   0.34811
     Eigenvalues ---    0.34825   0.34833   0.34846   0.34881
 RFO step:  Lambda=-2.79487745D-01 EMin= 2.32559627D-03
 Linear search not attempted -- first point.
 Maximum step size (   0.300) exceeded in Quadratic search.
    -- Step size scaled by   0.427
 Iteration  1 RMS(Cart)=  0.05907876 RMS(Int)=  0.00010211
 Iteration  2 RMS(Cart)=  0.00021329 RMS(Int)=  0.00002171
 Iteration  3 RMS(Cart)=  0.00000002 RMS(Int)=  0.00002171
 Variable       Old X    -DE/DX   Delta X   Delta X   Delta X     New X
                                 (Linear)    (Quad)   (Total)
    R1        2.91177  -0.05318   0.00000  -0.04007  -0.04012   2.87165
    R2        2.91044  -0.08887   0.00000  -0.06726  -0.06726   2.84318
    R3        2.90864  -0.06753   0.00000  -0.05092  -0.05095   2.85769
    R4        2.91044  -0.07704   0.00000  -0.05809  -0.05814   2.85230
    R5        2.90911  -0.08222   0.00000  -0.06208  -0.06210   2.84701
    R6        2.90920  -0.08410   0.00000  -0.06356  -0.06356   2.84564
    R7        2.06128  -0.00742   0.00000  -0.00505  -0.00505   2.05622
    R8        2.91053  -0.06795   0.00000  -0.05152  -0.05149   2.85904
    R9        2.90920  -0.08328   0.00000  -0.06289  -0.06290   2.84630
   R10        2.91174  -0.10029   0.00000  -0.07599  -0.07598   2.83577
   R11        2.05959  -0.00674   0.00000  -0.00458  -0.00458   2.05501
   R12        2.90840  -0.09002   0.00000  -0.06795  -0.06794   2.84046
   R13        2.91177  -0.08958   0.00000  -0.06783  -0.06783   2.84394
   R14        2.05986  -0.00440   0.00000  -0.00299  -0.00299   2.05686
   R15        2.91094  -0.07128   0.00000  -0.05353  -0.05356   2.85738
   R16        2.95528  -0.07949   0.00000  -0.06218  -0.06220   2.89309
   R17        2.91012  -0.11551   0.00000  -0.08755  -0.08751   2.82261
   R18        2.06004  -0.00455   0.00000  -0.00310  -0.00310   2.05694
   R19        2.91094  -0.10211   0.00000  -0.07733  -0.07731   2.83363
   R20        2.05868  -0.00384   0.00000  -0.00261  -0.00261   2.05607
   R21        2.90840  -0.08845   0.00000  -0.06689  -0.06686   2.84154
   R22        2.05986  -0.00435   0.00000  -0.00296  -0.00296   2.05689
   R23        2.95562  -0.08029   0.00000  -0.06280  -0.06282   2.89280
   R24        2.05983  -0.00432   0.00000  -0.00294  -0.00294   2.05689
   R25        2.90996  -0.10582   0.00000  -0.08021  -0.08019   2.82976
   R26        2.06113  -0.00493   0.00000  -0.00336  -0.00336   2.05777
   R27        2.90982  -0.07555   0.00000  -0.05749  -0.05746   2.85237
   R28        2.06080  -0.00443   0.00000  -0.00302  -0.00302   2.05778
   R29        2.91032  -0.10637   0.00000  -0.08062  -0.08061   2.82972
   R30        2.05947  -0.00399   0.00000  -0.00272  -0.00272   2.05675
   R31        2.05926  -0.00418   0.00000  -0.00284  -0.00284   2.05642
   R32        2.91135  -0.06896   0.00000  -0.05229  -0.05227   2.85908
   R33        2.05992  -0.00462   0.00000  -0.00314  -0.00314   2.05678
    A1        2.09444   0.01176   0.00000   0.00932   0.00938   2.10382
    A2        2.09421  -0.00705   0.00000  -0.00537  -0.00545   2.08876
    A3        2.09454  -0.00471   0.00000  -0.00395  -0.00393   2.09061
    A4        2.09444  -0.00590   0.00000  -0.00453  -0.00459   2.08985
    A5        2.09413   0.01302   0.00000   0.01028   0.01036   2.10448
    A6        2.09462  -0.00711   0.00000  -0.00575  -0.00577   2.08885
    A7        2.09468   0.00346   0.00000   0.00298   0.00295   2.09763
    A8        2.09360   0.00116   0.00000   0.00132   0.00133   2.09493
    A9        2.09491  -0.00462   0.00000  -0.00430  -0.00428   2.09063
   A10        2.09390   0.00223   0.00000   0.00166   0.00169   2.09558
   A11        2.09468  -0.00112   0.00000  -0.00074  -0.00079   2.09389
   A12        2.09461  -0.00111   0.00000  -0.00093  -0.00089   2.09372
   A13        2.09394   0.00285   0.00000   0.00241   0.00239   2.09634
   A14        2.09525   0.00074   0.00000   0.00090   0.00090   2.09615
   A15        2.09399  -0.00359   0.00000  -0.00331  -0.00330   2.09070
   A16        2.09420   0.00137   0.00000   0.00128   0.00128   2.09547
   A17        2.09486  -0.00064   0.00000  -0.00060  -0.00060   2.09426
   A18        2.09413  -0.00072   0.00000  -0.00068  -0.00068   2.09345
   A19        2.09389  -0.00176   0.00000  -0.00135  -0.00135   2.09254
   A20        2.06481   0.00702   0.00000   0.00599   0.00603   2.07084
   A21        2.05037  -0.00267   0.00000  -0.00080  -0.00088   2.04949
   A22        2.09516   0.00531   0.00000   0.00410   0.00417   2.09932
   A23        2.09466  -0.00298   0.00000  -0.00236  -0.00240   2.09226
   A24        2.09337  -0.00233   0.00000  -0.00173  -0.00177   2.09160
   A25        2.09389   0.00176   0.00000   0.00144   0.00144   2.09533
   A26        2.09482  -0.00153   0.00000  -0.00135  -0.00135   2.09347
   A27        2.09448  -0.00023   0.00000  -0.00009  -0.00009   2.09438
   A28        2.09438   0.00285   0.00000   0.00221   0.00225   2.09663
   A29        2.09394  -0.00170   0.00000  -0.00137  -0.00139   2.09255
   A30        2.09486  -0.00115   0.00000  -0.00084  -0.00086   2.09401
   A31        2.09486  -0.00034   0.00000  -0.00062  -0.00060   2.09426
   A32        2.12859   0.00130   0.00000   0.00058   0.00061   2.12921
   A33        2.04949  -0.00059   0.00000   0.00061   0.00055   2.05003
   A34        2.09486   0.00077   0.00000   0.00042   0.00047   2.09533
   A35        2.09340  -0.00058   0.00000  -0.00040  -0.00042   2.09298
   A36        2.09493  -0.00020   0.00000  -0.00003  -0.00005   2.09488
   A37        2.07682   0.00084   0.00000   0.00104   0.00102   2.07784
   A38        2.11658  -0.00298   0.00000  -0.00301  -0.00300   2.11358
   A39        2.08978   0.00215   0.00000   0.00197   0.00198   2.09176
   A40        2.09422   0.00301   0.00000   0.00226   0.00231   2.09653
   A41        2.09418  -0.00176   0.00000  -0.00137  -0.00140   2.09278
   A42        2.09478  -0.00125   0.00000  -0.00089  -0.00091   2.09387
   A43        2.09444   0.00379   0.00000   0.00296   0.00300   2.09744
   A44        2.09442  -0.00136   0.00000  -0.00096  -0.00098   2.09344
   A45        2.09433  -0.00243   0.00000  -0.00200  -0.00202   2.09230
   A46        2.07696  -0.00024   0.00000   0.00021   0.00019   2.07715
   A47        2.11599  -0.00201   0.00000  -0.00217  -0.00216   2.11382
   A48        2.09024   0.00225   0.00000   0.00196   0.00197   2.09221
   A49        2.09421   0.00198   0.00000   0.00166   0.00165   2.09586
   A50        2.09508   0.00046   0.00000   0.00032   0.00031   2.09540
   A51        2.09389  -0.00244   0.00000  -0.00198  -0.00196   2.09193
   A52        2.09359   0.00495   0.00000   0.00381   0.00387   2.09746
   A53        2.09534  -0.00216   0.00000  -0.00160  -0.00163   2.09371
   A54        2.09426  -0.00279   0.00000  -0.00221  -0.00224   2.09201
    D1        3.14159   0.00064   0.00000   0.00092   0.00092  -3.14067
    D2        0.00010   0.00052   0.00000   0.00073   0.00073   0.00083
    D3        0.00062   0.00013   0.00000   0.00023   0.00023   0.00085
    D4       -3.14087   0.00000   0.00000   0.00004   0.00004  -3.14083
    D5        3.14150   0.00003   0.00000   0.00009   0.00008   3.14158
    D6        0.00095  -0.00041   0.00000  -0.00079  -0.00080   0.00015
    D7       -0.00072   0.00055   0.00000   0.00078   0.00078   0.00006
    D8       -3.14127   0.00011   0.00000  -0.00010  -0.00010  -3.14138
    D9        3.14159  -0.00048   0.00000  -0.00072  -0.00072   3.14087
   D10       -0.00044  -0.00020   0.00000  -0.00035  -0.00035  -0.00078
   D11        0.00062  -0.00100   0.00000  -0.00142  -0.00142  -0.00079
   D12       -3.14140  -0.00073   0.00000  -0.00104  -0.00104   3.14074
   D13       -0.00072  -0.00003   0.00000  -0.00005  -0.00005  -0.00077
   D14       -3.14150  -0.00006   0.00000  -0.00009  -0.00009  -3.14159
   D15        3.14078   0.00010   0.00000   0.00014   0.00014   3.14091
   D16        0.00000   0.00007   0.00000   0.00010   0.00010   0.00010
   D17       -3.14087   0.00003   0.00000   0.00006   0.00006  -3.14082
   D18       -0.00105   0.00008   0.00000   0.00013   0.00013  -0.00092
   D19        0.00082  -0.00009   0.00000  -0.00013  -0.00013   0.00069
   D20        3.14064  -0.00004   0.00000  -0.00006  -0.00006   3.14059
   D21        0.00019   0.00051   0.00000   0.00063   0.00062   0.00081
   D22       -2.72741  -0.00574   0.00000  -0.00942  -0.00943  -2.73684
   D23        3.14074   0.00096   0.00000   0.00151   0.00150  -3.14094
   D24        0.41314  -0.00530   0.00000  -0.00854  -0.00855   0.40460
   D25        0.00063   0.00001   0.00000   0.00000   0.00000   0.00063
   D26        3.14152   0.00009   0.00000   0.00013   0.00013  -3.14153
   D27        3.14140   0.00004   0.00000   0.00004   0.00004   3.14144
   D28       -0.00089   0.00011   0.00000   0.00017   0.00017  -0.00072
   D29       -0.00019  -0.00002   0.00000  -0.00002  -0.00002  -0.00021
   D30        3.14091   0.00002   0.00000   0.00003   0.00003   3.14094
   D31       -3.14096  -0.00005   0.00000  -0.00006  -0.00006  -3.14103
   D32        0.00013  -0.00001   0.00000  -0.00001  -0.00001   0.00012
   D33       -0.00145   0.00006   0.00000   0.00009   0.00009  -0.00136
   D34       -3.14148   0.00003   0.00000   0.00004   0.00004  -3.14144
   D35       -3.14127   0.00000   0.00000   0.00001   0.00001  -3.14126
   D36        0.00188  -0.00002   0.00000  -0.00003  -0.00003   0.00184
   D37       -0.00054   0.00067   0.00000   0.00076   0.00075   0.00021
   D38       -2.98488  -0.00209   0.00000  -0.00361  -0.00362  -2.98850
   D39       -3.14129   0.00067   0.00000   0.00097   0.00097  -3.14033
   D40        0.15755  -0.00209   0.00000  -0.00340  -0.00340   0.15415
   D41        0.00001   0.00039   0.00000   0.00065   0.00065   0.00066
   D42       -3.14115   0.00012   0.00000   0.00028   0.00028  -3.14088
   D43        3.14076   0.00040   0.00000   0.00044   0.00044   3.14120
   D44       -0.00040   0.00012   0.00000   0.00007   0.00006  -0.00033
   D45        0.00044  -0.00112   0.00000  -0.00139  -0.00139  -0.00095
   D46        2.99178   0.00168   0.00000   0.00278   0.00280   2.99458
   D47        2.73138   0.00733   0.00000   0.01015   0.01015   2.74153
   D48       -0.56047   0.01013   0.00000   0.01433   0.01433  -0.54614
   D49       -3.12179  -0.00147   0.00000  -0.00177  -0.00176  -3.12355
   D50        0.01988  -0.00079   0.00000  -0.00080  -0.00078   0.01909
   D51        0.42347  -0.00772   0.00000  -0.01139  -0.01140   0.41207
   D52       -2.71805  -0.00703   0.00000  -0.01041  -0.01042  -2.72847
   D53       -0.00044  -0.00008   0.00000  -0.00012  -0.00012  -0.00056
   D54        3.14054   0.00014   0.00000   0.00022   0.00022   3.14075
   D55       -3.14134  -0.00016   0.00000  -0.00024  -0.00025  -3.14158
   D56       -0.00036   0.00006   0.00000   0.00009   0.00009  -0.00027
   D57       -0.00044  -0.00001   0.00000  -0.00002  -0.00002  -0.00046
   D58        3.14142   0.00001   0.00000   0.00002   0.00002   3.14144
   D59       -3.14154  -0.00005   0.00000  -0.00007  -0.00007   3.14158
   D60        0.00032  -0.00002   0.00000  -0.00004  -0.00004   0.00029
   D61        0.00126  -0.00001   0.00000  -0.00001  -0.00001   0.00124
   D62       -3.14060  -0.00003   0.00000  -0.00005  -0.00005  -3.14065
   D63        3.14129   0.00002   0.00000   0.00003   0.00003   3.14132
   D64       -0.00057   0.00000   0.00000   0.00000   0.00000  -0.00057
   D65       -2.87176  -0.00441   0.00000  -0.00648  -0.00648  -2.87823
   D66        0.27008  -0.00360   0.00000  -0.00532  -0.00532   0.26476
   D67        0.42319  -0.00711   0.00000  -0.01063  -0.01064   0.41255
   D68       -2.71816  -0.00630   0.00000  -0.00948  -0.00948  -2.72764
   D69       -0.14083   0.00296   0.00000   0.00481   0.00482  -0.13601
   D70        3.00076   0.00302   0.00000   0.00478   0.00478   3.00555
   D71        3.00070   0.00228   0.00000   0.00385   0.00385   3.00455
   D72       -0.14090   0.00235   0.00000   0.00382   0.00382  -0.13708
   D73        0.00000  -0.00152   0.00000  -0.00214  -0.00214  -0.00214
   D74        3.14159  -0.00122   0.00000  -0.00178  -0.00179   3.13981
   D75        3.14159  -0.00158   0.00000  -0.00211  -0.00211   3.13949
   D76        0.00000  -0.00128   0.00000  -0.00175  -0.00175  -0.00175
   D77       -0.14082   0.00294   0.00000   0.00446   0.00445  -0.13637
   D78        3.00053   0.00215   0.00000   0.00332   0.00331   3.00384
   D79        3.00077   0.00264   0.00000   0.00410   0.00410   3.00487
   D80       -0.14106   0.00185   0.00000   0.00296   0.00296  -0.13810
   D81        0.00034   0.00018   0.00000   0.00029   0.00030   0.00064
   D82       -3.14063  -0.00004   0.00000  -0.00004  -0.00004  -3.14067
   D83        3.14150   0.00046   0.00000   0.00067   0.00067  -3.14101
   D84        0.00053   0.00024   0.00000   0.00033   0.00033   0.00086
         Item               Value     Threshold  Converged?
 Maximum Force            0.115510     0.000450     NO 
 RMS     Force            0.030280     0.000300     NO 
 Maximum Displacement     0.214931     0.001800     NO 
 RMS     Displacement     0.059176     0.001200     NO 
 Predicted change in Energy=-1.066120D-01
 GradGradGradGradGradGradGradGradGradGradGradGradGradGradGradGradGradGrad

                          Input orientation:                          
 ---------------------------------------------------------------------
 Center     Atomic      Atomic             Coordinates (Angstroms)
 Number     Number       Type             X           Y           Z
 ---------------------------------------------------------------------
      1          6           0        0.693410    0.358463   -0.009012
      2          6           0       -0.638370   -0.373005    0.014277
      3          6           0        1.967668   -0.362247    0.338112
      4          6           0       -1.905529    0.367388   -0.338332
      5          6           0       -0.705357   -1.831402    0.386242
      6          6           0        2.050741    2.556310   -0.409535
      7          6           0        3.283017    0.370405    0.312437
      8          6           0       -1.848461    1.832266   -0.712307
      9          6           0       -3.228376   -0.352507   -0.316929
     10          6           0       -2.026025   -2.543693    0.404877
     11          6           0        3.322790    1.834758   -0.062282
     12          6           0       -3.287422   -1.804165    0.054124
     13          6           0        4.570435   -0.438515    0.133480
     14          6           0        5.885116    0.278386    0.130078
     15          6           0        5.925109    1.787253    0.124222
     16          6           0        4.650991    2.573933    0.119018
     17          6           0        0.736942    1.822704   -0.384414
     18          6           0       -0.540542    2.553255   -0.735665
     19          1           0        1.941033   -1.415859    0.608610
     20          1           0        0.203485   -2.371683    0.640570
     21          1           0        2.079515    3.610116   -0.680419
     22          1           0       -2.764189    2.363196   -0.965995
     23          1           0       -4.141636    0.181731   -0.570582
     24          1           0       -2.070350   -3.597357    0.674280
     25          1           0       -4.244584   -2.322206    0.069020
     26          1           0        4.542472   -1.519902    0.008646
     27          1           0        6.813698   -0.290385    0.131865
     28          1           0        6.882264    2.305365    0.123444
     29          1           0        4.680608    3.654490    0.244398
     30          1           0       -0.505454    3.606905   -1.006228
 ---------------------------------------------------------------------
                    Distance matrix (angstroms):
                    1          2          3          4          5
     1  C    0.000000
     2  C    1.519613   0.000000
     3  C    1.504544   2.626104   0.000000
     4  C    2.619735   1.509373   3.998950   0.000000
     5  C    2.628362   1.506575   3.050541   2.607700   0.000000
     6  C    2.614058   3.998977   3.013943   4.522004   5.242266
     7  C    2.609509   4.002353   1.505849   5.229198   4.556373
     8  C    3.021229   2.618294   4.525716   1.512938   3.991987
     9  C    3.997586   2.611177   5.237179   1.506198   3.007857
    10  C    3.998642   2.605771   4.551126   3.006871   1.500623
    11  C    3.015945   4.535512   2.612184   5.437343   5.465151
    12  C    4.530781   3.011194   5.456717   2.603709   2.603480
    13  C    3.960657   5.210580   2.611912   6.542949   5.462417
    14  C    5.194187   6.556950   3.974932   7.805221   6.924678
    15  C    5.424930   6.910720   4.508596   7.971754   7.558201
    16  C    4.537306   6.055803   3.983638   6.932962   6.940378
    17  C    1.512225   2.621370   2.609740   3.017072   4.003328
    18  C    2.620644   3.022413   3.993028   2.607504   4.528914
    19  H    2.255269   2.845013   1.088106   4.344273   2.688030
    20  H    2.848803   2.257360   2.691032   3.592868   1.087465
    21  H    3.597961   4.871833   4.102388   5.149066   6.205111
    22  H    4.109715   3.600949   5.614197   2.261527   4.864359
    23  H    4.870756   3.594811   6.200422   2.255789   4.095880
    24  H    4.873783   3.589236   5.185030   4.095333   2.250503
    25  H    5.619239   4.099653   6.519656   3.587622   3.587149
    26  H    4.282971   5.306272   2.842239   6.727479   5.270609
    27  H    6.156199   7.453454   4.850949   8.756636   7.679560
    28  H    6.489213   7.984079   5.596024   9.010787   8.646034
    29  H    5.179359   6.675717   4.847989   7.383888   7.689197
    30  H    3.603344   4.110813   4.865979   3.591763   5.617306
                    6          7          8          9         10
     6  C    0.000000
     7  C    2.611116   0.000000
     8  C    3.977397   5.433158   0.000000
     9  C    6.028173   6.581560   2.614139   0.000000
    10  C    6.579766   6.056933   4.519806   2.601528   0.000000
    11  C    1.503107   1.512060   5.211946   6.911349   6.928124
    12  C    6.908308   6.925760   3.985180   1.499493   1.503680
    13  C    3.951290   1.530955   6.861051   7.812279   6.929554
    14  C    4.492499   2.610104   7.932992   9.146233   8.403916
    15  C    3.985859   3.003919   7.818580   9.410604   9.058498
    16  C    2.653484   2.600826   6.594243   8.416562   8.417503
    17  C    1.504950   3.012851   2.606131   4.523256   5.227083
    18  C    2.611728   4.525810   1.493661   3.980357   5.430136
    19  H    4.102045   2.253747   5.162887   5.358183   4.129294
    20  H    5.366580   4.136452   4.869696   4.095308   2.248523
    21  H    1.088446   3.595819   4.311701   6.633868   7.476811
    22  H    4.850824   6.494174   1.088486   2.830512   5.147984
    23  H    6.634010   7.479358   2.828958   1.088023   3.585425
    24  H    7.485029   6.673275   5.608267   3.585048   1.088462
    25  H    7.978724   7.998386   4.859168   2.249744   2.254741
    26  H    4.795737   2.291675   7.252642   7.864787   6.659602
    27  H    5.575172   3.596521   8.958308  10.052290   9.126480
    28  H    4.867304   4.090766   8.783385  10.463424  10.146437
    29  H    2.924008   3.569748   6.845767   8.883869   9.133573
    30  H    2.827353   5.154252   2.244861   4.854522   6.491010
                   11         12         13         14         15
    11  C    0.000000
    12  C    7.546537   0.000000
    13  C    2.600521   7.976040   0.000000
    14  C    3.004132   9.406288   1.497446   0.000000
    15  C    2.609426   9.888070   2.605623   1.509408   0.000000
    16  C    1.530806   9.065890   3.013559   2.606285   1.497421
    17  C    2.605863   5.435256   4.480735   5.399381   5.213160
    18  C    3.986856   5.211164   5.985665   6.871217   6.567405
    19  H    3.595255   5.272095   2.845119   4.319172   5.134921
    20  H    5.283768   3.585029   4.802554   6.290023   7.092273
    21  H    2.253824   7.658852   4.822710   5.122493   4.331152
    22  H    6.176347   4.322189   7.928123   8.964278   8.776342
    23  H    7.662149   2.250272   8.762453  10.051668  10.217622
    24  H    7.690017   2.254195   7.373653   8.866058   9.655255
    25  H    8.634972   1.088460   9.014266  10.458376  10.968744
    26  H    3.570210   7.835185   1.088927   2.247505   3.586407
    27  H    4.091499  10.214216   2.248150   1.088930   2.259696
    28  H    3.595249  10.968845   3.587971   2.258980   1.088387
    29  H    2.291101   9.660364   4.095989   3.586361   2.247176
    30  H    4.322845   6.176033   6.590068   7.294492   6.777993
                   16         17         18         19         20
    16  C    0.000000
    17  C    4.017159   0.000000
    18  C    5.261457   1.512961   0.000000
    19  H    4.847887   3.595027   4.870232   0.000000
    20  H    6.671689   4.350638   5.167457   1.983354   0.000000
    21  H    2.885354   2.254986   2.825722   5.190491   6.406748
    22  H    7.497103   3.590026   2.243608   6.236966   5.814397
    23  H    9.138297   5.150532   4.315003   6.398567   5.183328
    24  H    9.141638   6.195061   6.492941   4.566666   2.583358
    25  H   10.154108   6.496267   6.175561   6.274909   4.484912
    26  H    4.096759   5.080311   6.556039   2.671753   4.466728
    27  H    3.589120   6.454351   7.932450   5.023628   6.948777
    28  H    2.247382   6.185132   7.476468   6.204728   8.169962
    29  H    1.088210   4.393556   5.425279   5.774630   7.517734
    30  H    5.377930   2.261321   1.088399   5.815596   6.241638
                   21         22         23         24         25
    21  H    0.000000
    22  H    5.009773   0.000000
    23  H    7.104126   2.610076   0.000000
    24  H    8.426402   6.220941   4.485690   0.000000
[...]
 948,0.00001004,-0.00001230,-0.00000268,-0.00000169,-0.00002702,-0.0000
 0493,-0.00000069,-0.00000007,0.00004093,-0.00000943,-0.00027231,-0.000
 05698,-0.00010032,-0.00004905,0.00001314,0.00003720,-0.00000678,0.0000
 0415,-0.00000455,-0.00029967,0.00088573,-0.00108402,-0.00002175,-0.000
 02914,-0.00000847,0.00001960,0.00000703,0.00000689,-0.00018122,-0.0007
 2703,0.00018615,0.01749198,0.34941383,-0.00005732,0.00006649,0.0003203
 6,-0.00054056,0.00112220,0.00758405,-0.00001062,0.00005021,0.00017735,
 -0.00007379,-0.00023616,-0.00032159,-0.00077271,0.00017351,0.00320669,
 -0.00000547,-0.00000124,0.00000201,0.00000552,-0.00001364,-0.00005637,
 0.00010969,-0.00022247,-0.00111312,-0.00141619,0.00120233,0.00576836,0
 .00130200,0.05565034,-0.04853905,0.00000226,0.00001329,0.00005535,0.00
 115308,0.00530927,0.00226228,-0.00000069,0.00000832,-0.00000409,0.0000
 0376,0.00000216,-0.00000660,0.00000549,-0.00000105,0.00000315,-0.00000
 186,-0.00000841,-0.00000592,0.00006174,-0.00008728,-0.00043993,-0.0000
 2007,0.00004730,0.00021373,-0.00000188,-0.00000220,-0.00001584,0.00050
 209,-0.00102850,-0.00432251,0.00000622,-0.00000921,-0.00006157,-0.0000
 0448,-0.00000127,0.00003434,0.00001923,0.00030593,0.00024445,-0.000521
 67,-0.06150815,0.03815646,0.00001332,-0.00006124,0.00010852,0.00048975
 ,0.00079714,-0.00009428,-0.00004910,0.00003324,-0.00001783,0.00174855,
 0.00041787,-0.00057787,-0.00204152,0.00386523,-0.00140053,0.00001928,0
 .00000736,-0.00000066,0.00001354,-0.00002688,0.00001064,-0.00018022,0.
 00014626,-0.00007362,0.00181250,0.00320388,-0.00075588,-0.01884323,-0.
 01575186,0.00133044,-0.00002624,-0.00001092,-0.00000014,-0.28468155,-0
 .11393457,0.00267512,0.00000664,-0.00002918,0.00000584,-0.00002320,-0.
 00000467,-0.00000027,-0.00001103,0.00001591,-0.00000415,0.00001146,0.0
 0001974,-0.00000412,-0.00004801,-0.00002290,-0.00001547,0.00009548,-0.
 00010336,0.00006689,0.00006790,-0.00003960,0.00000633,-0.00106124,-0.0
 0063454,0.00002578,-0.00000288,-0.00001313,0.00000218,0.00002919,-0.00
 003762,0.00000477,0.00091259,-0.00037830,0.00050120,0.00097413,0.00047
 314,0.00025667,0.30081148,0.00011417,0.00014173,-0.00025381,0.00048601
 ,-0.00078459,0.00013775,-0.00008782,-0.00003242,0.00001772,0.00153173,
 -0.00457180,0.00257118,0.00289400,-0.00123064,0.00166427,-0.00009190,0
 .00002964,-0.00001119,0.00002149,0.00007592,-0.00002377,-0.00149466,0.
 00019854,-0.00008115,-0.03122422,-0.01016270,0.00018837,0.01842641,0.0
 1097070,-0.00007269,0.00006783,-0.00004181,0.00001399,-0.11357635,-0.1
 1746021,0.00645144,-0.00003408,-0.00001952,0.00000203,0.00000390,0.000
 02799,-0.00000670,0.00000933,-0.00002405,0.00000583,-0.00003449,0.0000
 2176,-0.00000409,0.00023378,-0.00004437,0.00006687,-0.00001550,-0.0005
 6973,0.00001333,-0.00003045,0.00003567,0.00000736,0.00081617,0.0003367
 1,0.00003304,0.00000388,-0.00000002,0.00000070,0.00003607,-0.00003340,
 0.00002128,0.00057228,0.00084801,-0.00099384,-0.00055869,0.00074543,-0
 .00085725,0.12208667,0.12162404,0.00007353,-0.00026819,-0.00115047,-0.
 00003296,0.00016306,-0.00030917,0.00000591,0.00002703,0.00008893,-0.00
 079302,0.00248291,0.00747153,-0.00121080,0.00174229,0.00570853,0.00001
 863,-0.00000336,0.00001164,0.00000116,-0.00002757,-0.00004923,0.000245
 20,0.00004847,0.00039942,0.00594304,0.00290995,0.00339292,-0.00532543,
 -0.00277708,0.00323057,-0.00001540,0.00000778,-0.00000026,0.00261019,0
 .00642445,-0.03920360,0.00000679,0.00000244,0.00000473,-0.00000197,-0.
 00000735,-0.00000673,-0.00000280,0.00000636,0.00000062,0.00000643,0.00
 000017,0.00001528,-0.00006540,0.00004692,0.00019015,0.00005009,0.00000
 589,-0.00049328,0.00000447,0.00000672,0.00008515,-0.00025687,-0.000081
 75,0.00017217,-0.00000114,-0.00000062,0.00000202,-0.00000956,0.0000155
 0,0.00005759,0.00031543,-0.00106843,-0.00425705,0.00045724,-0.00077580
 ,-0.00324582,-0.00204999,-0.00889432,0.02788415,0.00017168,-0.00047713
 ,0.00011123,-0.00005769,-0.00002462,-0.00001030,0.00164701,0.00164116,
 0.00006159,0.00001654,0.00001551,-0.00000313,-0.00004780,0.00007629,-0
 .00001564,0.00035241,0.00136741,-0.00025162,0.00243804,0.02898759,-0.0
 0576777,-0.00002425,0.00004332,-0.00000904,0.00001767,-0.00000349,0.00
 000338,0.00000644,-0.00004114,0.00000910,-0.00456407,0.00090405,-0.000
 90651,0.00001381,-0.00000210,0.00000133,-0.05994451,-0.00324647,-0.001
 11392,0.00288139,-0.03080784,0.00589104,-0.00441621,-0.00157360,-0.000
 70120,-0.00084473,0.00002906,-0.00006099,0.00024380,0.00011663,0.00000
 662,-0.00003074,-0.00006141,0.00000928,-0.00026908,-0.00093200,0.00013
 367,-0.00000359,-0.00004338,0.00000487,-0.00033889,0.00021499,-0.00008
 705,0.00000116,-0.00001001,0.00000179,0.00000812,-0.00000286,0.0000010
 0,-0.00000319,0.00000222,-0.00000115,0.00000713,-0.00000134,0.00000070
 ,0.06150980,0.00035600,0.00012852,-0.00000815,-0.00008017,-0.00009949,
 0.00003891,-0.00163023,0.00073435,-0.00089356,0.00001392,-0.00009535,0
 .00002318,0.00010202,-0.00000237,0.00000126,-0.00076633,-0.00066895,0.
 00010211,-0.00343196,-0.01257748,0.00293177,0.00009970,-0.00002052,0.0
 0000864,-0.00000169,0.00004653,-0.00001240,-0.00003527,0.00003468,-0.0
 0001096,0.00249303,0.00129451,0.00085610,0.00001507,-0.00001942,0.0000
 0539,-0.00395728,-0.32689034,0.05610931,0.00397515,-0.01175606,0.00347
 084,-0.00294976,0.00131009,0.00113744,0.00016777,0.00065934,-0.0001437
 4,0.00004352,0.00020414,-0.00006129,-0.00002335,0.00015229,-0.00003090
 ,0.00092789,0.00060638,0.00002189,-0.00001484,0.00001628,0.00000367,0.
 00021812,-0.00014085,0.00009010,0.00001520,0.00000688,0.00000048,0.000
 00279,-0.00000339,0.00000137,0.00000805,0.00001559,-0.00000123,0.00000
 691,0.00000732,-0.00000060,0.00467288,0.34718734,-0.00005103,-0.000074
 23,-0.00004618,0.00000055,0.00004322,0.00012394,0.00069952,-0.00063428
 ,-0.00300336,-0.00000283,0.00002322,0.00001301,-0.00002081,-0.00000064
 ,-0.00003868,0.00016409,0.00027094,0.00012561,0.00056199,0.00549216,0.
 00280811,-0.00002006,0.00000425,-0.00001901,0.00000306,-0.00001252,-0.
 00001371,0.00000791,-0.00001144,-0.00000432,-0.00121527,0.00073001,0.0
 0442916,-0.00000200,0.00000399,0.00000119,-0.00097794,0.05617139,-0.04
 888306,-0.00089692,0.00071938,0.00420538,-0.00043342,0.00124426,0.0080
 5456,-0.00008882,-0.00015460,-0.00012249,0.00002105,-0.00005531,-0.000
 11543,0.00000186,-0.00003400,0.00000985,-0.00022948,-0.00012531,0.0003
 4819,-0.00000063,0.00000136,0.00004065,-0.00008778,0.00008983,0.000208
 34,-0.00000313,-0.00000151,0.00000326,-0.00000010,0.00000092,0.0000022
 9,-0.00000230,-0.00000173,0.00000604,-0.00000090,-0.00000126,0.0000016
 3,0.00192631,-0.06240129,0.03794364,-0.00045842,-0.00021362,0.00007271
 ,0.00003324,0.00016206,-0.00002602,-0.00047600,0.00119541,-0.00029764,
 -0.00006138,0.00001060,-0.00001036,-0.00005019,-0.00003109,0.00000266,
 0.00025887,0.00007250,0.00007535,-0.00193792,-0.00426647,-0.00003526,-
 0.00003686,-0.00004060,0.00000502,-0.00000558,-0.00002652,0.00000416,0
 .00001532,0.00001230,-0.00000089,0.00011729,-0.00053241,0.00012892,-0.
 00002804,0.00000520,-0.00000270,-0.02020571,0.01700816,-0.00524241,-0.
 26927434,0.11594090,-0.04092495,0.00384593,-0.00439471,0.00092749,0.00
 140459,-0.00084498,-0.00009587,-0.00004981,-0.00017594,0.00001703,0.00
 006014,-0.00004674,0.00000897,0.00000414,-0.00006144,-0.00000887,0.000
 01299,0.00001622,-0.00000218,-0.00001903,0.00004765,-0.00001392,-0.000
 01795,0.00000128,0.00000008,-0.00001356,0.00000437,-0.00000283,-0.0000
 0651,-0.00001677,0.00000267,-0.00001187,-0.00000554,0.00000006,0.00101
 337,-0.00034349,0.00056087,0.28504812,-0.00028090,-0.00003559,-0.00018
 117,-0.00000890,0.00008011,-0.00002364,-0.00023527,0.00063523,-0.00007
 586,-0.00000596,0.00003417,0.00000133,0.00000447,-0.00002666,0.0000041
 3,0.00031217,0.00010721,-0.00016632,-0.00311009,-0.00127893,0.00176207
 ,-0.00001093,-0.00004729,0.00000827,-0.00002909,-0.00000865,0.00000079
 ,0.00003225,-0.00000221,0.00000230,-0.00100618,-0.00028060,-0.00006358
 ,-0.00000521,0.00002955,-0.00000748,-0.01766226,0.01098063,-0.00274268
 ,0.11686267,-0.12479185,0.02613240,0.02964997,-0.01101207,0.00507473,-
 0.00190238,-0.00503076,0.00174630,-0.00009929,-0.00016364,0.00005700,0
 .00004757,0.00003005,0.00000996,0.00001612,0.00001806,0.00004991,-0.00
 000263,0.00000055,-0.00000017,-0.00005889,0.00004363,-0.00000545,0.000
 00544,-0.00000176,-0.00000352,0.00000045,-0.00000313,0.00000288,0.0000
 0016,0.00000377,-0.00000055,0.00000311,0.00000246,0.,0.00053111,0.0007
 8128,-0.00112912,-0.12391990,0.12968155,0.00008564,-0.00017548,-0.0008
 0875,0.00000743,-0.00001003,-0.00003482,-0.00001804,0.00003707,0.00033
 189,-0.00000714,0.00000267,0.00004231,-0.00000431,0.00000132,-0.000007
 90,0.00002823,-0.00018506,-0.00083297,-0.00025877,0.00167000,0.0086645
 9,-0.00000075,0.00000594,-0.00000166,0.00000467,0.00000096,0.00000736,
 -0.00000478,0.00000073,-0.00000397,0.00022174,-0.00002596,-0.00017679,
 -0.00000068,-0.00000666,-0.00000554,0.00152529,0.00000139,0.00420941,-
 0.04111104,0.02606468,-0.04667075,-0.00571338,0.00237548,0.00204536,0.
 00011066,0.00182921,0.00434202,0.00000214,0.00005080,0.00015883,-0.000
 00945,0.00000245,0.00006060,-0.00002399,0.00004380,0.00025685,0.000001
 50,0.00000132,0.00000059,0.00000686,0.00000295,0.00003947,-0.00000075,
 -0.00000384,-0.00002131,-0.00000207,0.00000319,0.00001069,-0.00000062,
 -0.00000191,0.00000117,-0.00000165,-0.00000069,0.00000118,0.00038931,-
 0.00119845,-0.00495404,0.04469053,-0.03000965,0.03561245,-0.00005300,0
 .00016614,-0.00005025,0.00006826,0.00004817,-0.00000818,0.00024339,-0.
 00004338,0.00009632,-0.00000657,0.00007166,-0.00001504,-0.00003931,-0.
 00003453,0.00000402,-0.00046847,-0.00122453,0.00017498,0.00015721,0.00
 053232,-0.00007423,-0.00009725,0.00002168,-0.00001557,-0.00000365,-0.0
 0003995,0.00000892,0.00001925,-0.00000340,0.00000223,-0.00179188,0.003
 95579,-0.00163164,-0.00001419,0.00001595,-0.00000451,0.00147311,0.0005
 7997,-0.00036971,0.00316472,0.00402289,-0.00076957,-0.27553098,-0.1191
 4563,0.00448396,-0.02016589,-0.01694008,0.00138364,-0.00043807,0.00026
 444,-0.00001696,-0.00001193,-0.00018542,0.00003839,-0.00001202,-0.0000
 4451,0.00000505,0.00000865,0.00001226,-0.00000195,-0.00000500,0.000068
 35,-0.00003338,-0.00002973,-0.00000756,-0.00000203,-0.00000778,0.00000
 680,-0.00000212,-0.00000224,-0.00001211,0.00000196,-0.00001156,-0.0000
 0617,0.00000040,0.00000753,0.00012067,-0.00004492,0.00079946,-0.000463
 97,0.00036362,0.29172604,0.00010405,-0.00015564,0.00007240,-0.00004182
 ,0.00000484,0.00000608,-0.00028980,0.00009482,-0.00021062,-0.00001778,
 -0.00004728,0.00000914,0.00001373,0.00001156,-0.00000218,0.00023450,0.
 00064949,-0.00004204,0.00100385,-0.00026797,0.00008929,0.00003250,0.00
 004739,0.00000232,0.00002080,0.00001867,-0.00000549,-0.00003082,0.0000
 0481,-0.00000346,0.00282284,-0.00125380,0.00223853,0.00000960,-0.00002
 695,0.00000668,0.00163082,-0.00501294,0.00202737,-0.03001929,-0.011107
 88,0.00037177,-0.12008391,-0.12574020,0.00752993,0.01772429,0.01100640
 ,0.00005805,0.00029552,-0.00002059,-0.00014321,-0.00000008,0.00003737,
 -0.00001522,0.00006201,0.00005055,0.00000165,0.00000385,0.00001038,-0.
 00000108,-0.00002527,0.00001286,0.00004392,0.00000204,0.00000388,0.000
 00227,-0.00000394,0.00000277,-0.00000040,-0.00000027,-0.00000359,0.000
 00120,-0.00000498,-0.00000228,-0.00000021,-0.00137114,-0.00069488,0.00
 008111,0.00057370,0.00093711,-0.00065470,0.12771711,0.13065476,-0.0000
 3837,0.00007754,0.00015529,0.00000942,0.00001327,0.00005118,0.00014483
 ,-0.00019110,-0.00081916,0.00000242,0.00001633,0.00000384,-0.00000540,
 -0.00000603,-0.00000437,-0.00010912,-0.00015760,0.00036142,-0.00016679
 ,0.00005207,-0.00024070,-0.00001775,0.00000137,0.00004443,-0.00000296,
 -0.00001034,-0.00001620,0.00000762,-0.00000131,0.00000035,-0.00141111,
 0.00232814,0.00851408,-0.00000328,0.00000724,0.00000181,-0.00057374,0.
 00194431,0.00429226,0.00586969,0.00306315,0.00284051,0.00466545,0.0076
 0556,-0.03954962,-0.00537600,-0.00268388,0.00421604,-0.00002353,-0.000
 14566,-0.00084787,0.00000243,-0.00002994,-0.00003480,-0.00001573,-0.00
 000675,0.00003406,-0.00000032,-0.00000043,0.00000328,-0.00001508,0.000
 05126,0.00023698,-0.00000391,0.00000151,0.00001411,-0.00000003,0.00000
 045,0.00000223,-0.00000034,0.00000026,0.00000260,0.00000016,-0.0000003
 0,-0.00000126,0.00024605,0.00019925,0.00025791,0.00016167,-0.00073704,
 -0.00249518,-0.00391161,-0.01026040,0.02794533,0.00025506,-0.00011053,
 0.00005322,-0.00000388,0.00006640,-0.00001519,0.00034891,-0.00137433,0
 .00028276,-0.00003199,-0.00006187,0.00000928,0.00001621,-0.00002007,0.
 00000615,0.00166556,-0.00136880,0.00064462,-0.00466329,-0.00101170,-0.
 00054046,0.00003088,-0.00000629,0.00000295,0.00000806,0.00003142,-0.00
 000533,-0.00002278,0.00003022,-0.00000797,0.00183722,-0.02954334,0.005
 60805,-0.00000835,-0.00002217,0.00000443,-0.00086010,-0.00001231,-0.00
 005408,-0.00430886,0.00134211,-0.00126204,0.00360545,0.03036383,-0.005
 98581,-0.05998297,-0.00409651,-0.00095407,0.00017914,0.00046690,-0.000
 07129,-0.00004545,0.00000280,-0.00001431,-0.00034063,-0.00023362,0.000
 00008,-0.00000882,0.00002561,-0.00000608,-0.00023041,0.00090501,-0.000
 21889,0.00000710,0.00000704,0.00000114,-0.00000448,-0.00000162,-0.0000
 0022,0.00000138,0.00000142,-0.00000043,0.00000076,0.00000228,-0.000000
 51,0.00019699,0.00001821,0.00012666,0.00004092,0.00134692,-0.00028183,
 0.00101503,-0.00035524,0.00056276,0.06133028,-0.00003803,0.00021430,-0
 .00007315,0.00005751,0.00010572,-0.00001124,0.00073259,-0.00064969,0.0
 0021681,-0.00005065,0.00002420,-0.00000808,-0.00001543,-0.00004365,0.0
 0000484,0.00163358,0.00072789,-0.00062078,-0.00258151,0.00130500,0.000
 45212,-0.00006090,-0.00005923,0.00000849,0.00000002,-0.00002898,0.0000
 0525,0.00000533,0.00003280,-0.00000526,0.00298032,-0.01255831,0.003422
 89,-0.00003663,-0.00000041,-0.00000475,-0.00015989,0.00066201,-0.00017
 000,0.00270652,0.00132288,0.00158228,-0.00439933,-0.01157652,0.0027710
 9,-0.00328619,-0.32730837,0.05620430,-0.00034077,0.00013458,-0.0000670
 4,0.00005387,-0.00011186,0.00005118,-0.00021518,-0.00014064,0.00005605
 ,0.00000326,0.00002476,-0.00000352,-0.00092995,0.00054062,-0.00011858,
 -0.00002062,0.00000121,-0.00000669,-0.00001380,0.00000614,-0.00000183,
 -0.00000111,-0.00001075,0.00000266,-0.00001039,-0.00000341,0.00000018,
 0.00002288,-0.00020684,-0.00024079,-0.00014664,-0.00068426,0.00017678,
 0.00052532,0.00077952,-0.00112968,0.00359625,0.34746563,0.00003892,-0.
 00007879,-0.00012701,-0.00001346,-0.00001057,0.00002553,-0.00012811,0.
 00005014,0.00014430,0.00000710,-0.00000897,0.00000554,0.00000527,0.000
 00455,-0.00001280,0.00005953,-0.00085773,-0.00294495,-0.00023443,0.000
 57662,0.00453974,0.00001358,0.00001280,0.00000770,0.00000079,0.0000077
 4,-0.00000341,-0.00000310,-0.00000332,0.00000394,-0.00073577,0.0008520
 2,0.00356010,0.00000725,-0.00000358,-0.00000856,-0.00002520,-0.0001582
 5,-0.00011603,-0.00152759,0.00147479,0.00792891,0.00079367,0.00551976,
 0.00340090,-0.00111168,0.05613917,-0.04883767,0.00008605,-0.00000338,-
 0.00006325,-0.00002426,0.00004715,0.00011768,-0.00000349,0.00005466,0.
 00022317,-0.00000174,-0.00000180,0.00000543,0.00013882,0.00002609,0.00
 031437,0.00000654,-0.00000450,-0.00002334,0.00000215,-0.00000087,0.000
 00268,0.00000006,0.00000286,0.00000282,0.00000196,0.00000116,0.0000015
 7,0.00012583,-0.00024143,-0.00139386,0.00000936,0.00029461,0.00022514,
 0.00039119,-0.00119916,-0.00496047,0.00212260,-0.06249008,0.03795956,-
 0.00462892,0.00078686,-0.00077431,-0.00059684,-0.00017995,-0.00001971,
 0.00043288,0.00134797,-0.00024266,-0.00457823,-0.00081985,-0.00095611,
 0.00023047,0.00007662,0.00008717,0.00156209,0.00184010,-0.00004189,0.0
 0018634,0.00004880,0.00000973,0.00186358,-0.03172811,0.00593847,0.0006
 5566,-0.00113866,0.00025066,-0.00011268,0.00007908,-0.00004538,0.00012
 635,-0.00045948,0.00010272,-0.00036104,-0.00020313,0.00008182,0.000005
 33,-0.00006650,0.00001295,-0.00004780,0.00000411,-0.00000327,0.0000098
 4,0.00002850,-0.00000608,-0.00002418,0.00001573,-0.00000761,0.00243907
 ,0.02853178,-0.00566520,-0.05979761,-0.01086009,0.00043927,-0.00034724
 ,0.00021518,-0.00007465,0.00001757,-0.00007235,0.00001286,-0.00030923,
 -0.00087376,0.00011808,0.00094987,0.00044398,0.00045047,-0.00004133,0.
 00002322,-0.00002644,0.00001521,-0.00001486,-0.00000350,-0.00002202,-0
 .00014481,0.00002657,0.00001185,-0.00002254,0.00000443,-0.00000122,-0.
 00001057,0.00000165,0.00000685,-0.00000687,0.00000255,-0.00002693,-0.0
 0001042,-0.00000184,0.06238234,0.00246716,0.00115068,0.00060025,0.0001
 7811,0.00041601,-0.00004814,-0.00069995,-0.00073731,0.00012274,-0.0024
 8804,0.00185705,0.00130205,0.00004738,-0.00001194,-0.00020082,-0.00174
 926,0.00070043,-0.00075126,0.00001565,0.00018790,-0.00004648,0.0032581
 9,-0.01134577,0.00343551,0.00042795,-0.00062154,0.00021136,-0.00006863
 ,0.00007533,0.00003194,0.00037918,0.00027035,-0.00003060,-0.00029448,-
 0.00012174,-0.00017441,-0.00005421,0.00013593,-0.00002971,0.00011564,0
 .00004675,-0.00000321,0.00005378,-0.00010623,0.00002818,-0.00007035,-0
 .00011345,0.00002309,-0.00370418,-0.01299769,0.00297529,-0.01170656,-0
 .32758880,0.05539756,0.00023657,-0.00012936,0.00005660,0.00002169,-0.0
 0000484,0.00000906,0.00087694,0.00067601,0.00000599,-0.00035428,0.0008
 1542,-0.00132624,-0.00006109,0.00002766,0.00003584,-0.00000858,-0.0000
 2759,0.00002342,-0.00001235,-0.00008499,0.00001518,-0.00002657,-0.0000
 0957,0.00000199,0.00001652,0.00000203,0.00000169,0.00002172,0.00000679
 ,-0.00000127,0.00001200,0.00003567,-0.00000171,0.01317005,0.34749680,-
 0.00110282,0.00046640,0.00305299,-0.00008872,-0.00007640,0.00010423,0.
 00015691,0.00028439,0.00013298,-0.00063056,0.00143321,0.00921752,0.000
 09267,-0.00019846,-0.00101552,0.00065760,-0.00046773,-0.00230192,0.000
 01606,-0.00004388,-0.00004696,-0.00088117,0.00067056,0.00476220,-0.000
 05468,0.00008793,0.00026852,-0.00001640,0.00004357,0.00025718,-0.00006
 079,-0.00009688,-0.00002655,0.00009989,-0.00016669,-0.00085654,0.00001
 058,-0.00003066,0.00001242,-0.00002504,-0.00001199,-0.00001599,-0.0000
 1099,0.00002616,0.00001031,0.00000917,0.00002990,0.00002852,0.00061543
 ,0.00552334,0.00274393,0.00060637,0.05546529,-0.04933038,-0.00007859,0
 .00005486,0.00004780,-0.00000544,0.00000162,0.00003209,-0.00022305,-0.
 00013244,0.00035896,0.00060585,-0.00126309,-0.00555295,-0.00001002,0.0
 0004237,0.00022725,-0.00000470,0.00002290,0.00009120,0.00000085,0.0000
 0476,-0.00000287,0.00000521,0.00000231,0.00001137,-0.00000363,-0.00000
 046,0.00000375,-0.00000301,-0.00000353,-0.00000810,-0.00000620,-0.0000
 0346,0.00002227,0.00032924,-0.06166387,0.03777228\\0.00001356,-0.00001
 305,-0.00000082,-0.00000204,-0.00000193,0.00001991,-0.00002717,-0.0000
 0697,-0.00000407,-0.00000632,-0.00000302,0.00000206,-0.00001225,-0.000
 01384,-0.00002101,-0.00000079,-0.00000247,-0.00000283,-0.00000985,0.00
 001249,0.00000369,-0.00000291,-0.00000046,-0.00001596,-0.00000194,-0.0
 0001347,0.00000972,-0.00000074,0.00001920,0.00003228,-0.00002453,0.000
 00549,0.00000105,0.00001272,0.00000305,-0.00003287,0.00002783,-0.00001
 402,-0.00000744,0.00000252,0.00000079,-0.00001332,-0.00000710,-0.00000
 305,0.00000203,0.00002661,0.00000783,-0.00000352,0.00000971,0.00000746
 ,-0.00000068,0.00000254,0.00000702,0.00000285,-0.00000166,0.00000187,0
 .00000543,-0.00000344,-0.00000085,-0.00000564,0.00000180,0.00000103,0.
 00000308,0.00000024,0.00000135,0.00000285,-0.00000157,0.00000097,0.000
 00766,0.00000003,0.00000102,-0.00000057,-0.00000005,0.00000150,-0.0000
 0132,0.00000179,-0.00000003,0.00000647,-0.00000101,0.00000173,0.000008
 62,-0.00000048,-0.00000027,0.00000132,0.00000416,0.00000007,0.00000081
 ,0.00000034,0.00000058,0.00000020\\\@


 IF IT'S NOT TRUE, IT'S WELL INVENTED -- DANTE
 Job cpu time:       0 days  0 hours 33 minutes 52.3 seconds.
 Elapsed time:       0 days  0 hours  8 minutes 28.3 seconds.
 File lengths (MBytes):  RWF=    153 Int=      0 D2E=      0 Chk=      5 Scr=      1
 Normal termination of Gaussian 16 at Sun Jun 21 18:21:43 2020.
