 Entering Gaussian System, Link 0=g16
 Input=tetracene_opt.gjf
 Output=tetracene_opt.log
 Initial command:
 /home/qingchun/software/g16A_modified_by_qingchun/g16/l1.exe "/scratch/qingchun/gaussian/Gau-21626.inp" -scrdir="/scratch/qingchun/gaussian/"
 Entering Link 1 = /home/qingchun/software/g16A_modified_by_qingchun/g16/l1.exe PID=     21627.
  
 Copyright (c) 1988,1990,1992,1993,1995,1998,2003,2009,2016,
            Gaussian, Inc.  All Rights Reserved.
  
 This is part of the Gaussian(R) 16 program.  It is based on
 the Gaussian(R) 09 system (copyright 2009, Gaussian, Inc.),
 the Gaussian(R) 03 system (copyright 2003, Gaussian, Inc.),
 the Gaussian(R) 98 system (copyright 1998, Gaussian, Inc.),
 the Gaussian(R) 94 system (copyright 1995, Gaussian, Inc.),
 the Gaussian 92(TM) system (copyright 1992, Gaussian, Inc.),
 the Gaussian 90(TM) system (copyright 1990, Gaussian, Inc.),
 the Gaussian 88(TM) system (copyright 1988, Gaussian, Inc.),
 the Gaussian 86(TM) system (copyright 1986, Carnegie Mellon
 University), and the Gaussian 82(TM) system (copyright 1983,
 Carnegie Mellon University). Gaussian is a federally registered
 trademark of Gaussian, Inc.
  
 This software contains proprietary and confidential information,
 including trade secrets, belonging to Gaussian, Inc.
  
 This software is provided under written license and may be
 used, copied, transmitted, or stored only in accord with that
 written license.
  
 The following legend is applicable only to US Government
 contracts under FAR:
  
                    RESTRICTED RIGHTS LEGEND
  
 Use, reproduction and disclosure by the US Government is
 subject to restrictions as set forth in subparagraphs (a)
 and (c) of the Commercial Computer Software - Restricted
 Rights clause in FAR 52.227-19.
  
 Gaussian, Inc.
 340 Quinnipiac St., Bldg. 40, Wallingford CT 06492
  
  
 ---------------------------------------------------------------
 Warning -- This program may not be used in any manner that
 competes with the business of Gaussian, Inc. or will provide
 assistance to any competitor of Gaussian, Inc.  The licensee
 of this program is prohibited from giving any competitor of
 Gaussian, Inc. access to this program.  By using this program,
 the user acknowledges that Gaussian, Inc. is engaged in the
 business of creating and licensing software in the field of
 computational chemistry and represents and warrants to the
 licensee that it is not a competitor of Gaussian, Inc. and that
 it will not use this program in any manner prohibited above.
 ---------------------------------------------------------------
  

 Cite this work as:
 Gaussian 16, Revision A.03,
 M. J. Frisch, G. W. Trucks, H. B. Schlegel, G. E. Scuseria, 
 M. A. Robb, J. R. Cheeseman, G. Scalmani, V. Barone, 
 G. A. Petersson, H. Nakatsuji, X. Li, M. Caricato, A. V. Marenich, 
 J. Bloino, B. G. Janesko, R. Gomperts, B. Mennucci, H. P. Hratchian, 
 J. V. Ortiz, A. F. Izmaylov, J. L. Sonnenberg, D. Williams-Young, 
 F. Ding, F. Lipparini, F. Egidi, J. Goings, B. Peng, A. Petrone, 
 T. Henderson, D. Ranasinghe, V. G. Zakrzewski, J. Gao, N. Rega, 
 G. Zheng, W. Liang, M. Hada, M. Ehara, K. Toyota, R. Fukuda, 
 J. Hasegawa, M. Ishida, T. Nakajima, Y. Honda, O. Kitao, H. Nakai, 
 T. Vreven, K. Throssell, J. A. Montgomery, Jr., J. E. Peralta, 
 F. Ogliaro, M. J. Bearpark, J. J. Heyd, E. N. Brothers, K. N. Kudin, 
 V. N. Staroverov, T. A. Keith, R. Kobayashi, J. Normand, 
 K. Raghavachari, A. P. Rendell, J. C. Burant, S. S. Iyengar, 
 J. Tomasi, M. Cossi, J. M. Millam, M. Klene, C. Adamo, R. Cammi, 
 J. W. Ochterski, R. L. Martin, K. Morokuma, O. Farkas, 
 J. B. Foresman, and D. J. Fox, Gaussian, Inc., Wallingford CT, 2016.
 
 ******************************************
 Gaussian 16:  ES64L-G16RevA.03 25-Dec-2016
                21-Jun-2020 
 ******************************************
 %nprocshared=4
 Will use up to    4 processors via shared memory.
 %mem=30GB
 %chk=tetracene_opt.chk
 ----------------------
 # opt freq b3lyp/6-31G
 ----------------------
 1/18=20,19=15,26=3,38=1/1,3;
 2/9=110,12=2,17=6,18=5,40=1/2;
 3/5=1,6=6,11=2,25=1,30=1,71=1,74=-5/1,2,3;
 4//1;
 5/5=2,38=5/2;
 6/7=2,8=2,9=2,10=2,28=1/1;
 7//1,2,3,16;
 1/18=20,19=15,26=3/3(2);
 2/9=110/2;
 99//99;
 2/9=110/2;
 3/5=1,6=6,11=2,25=1,30=1,71=1,74=-5/1,2,3;
 4/5=5,16=3,69=1/1;
 5/5=2,38=5/2;
 7//1,2,3,16;
 1/18=20,19=15,26=3/3(-5);
 2/9=110/2;
 6/7=2,8=2,9=2,10=2,19=2,28=1/1;
 99/9=1/99;
 -----
 6-31G
 -----
 Symbolic Z-matrix:
 Charge =  0 Multiplicity = 1
 C                     0.674     0.373    -0.012 
 C                    -0.674    -0.373     0.012 
 C                     1.973    -0.372     0.348 
 C                    -1.973     0.372    -0.348 
 C                     2.07      2.609    -0.419 
 C                     3.32      0.373     0.324 
 C                    -1.924     1.863    -0.731 
 C                     3.368     1.864    -0.06 
 C                     4.627    -0.464     0.132 
 C                     5.985     0.262     0.132 
 C                     6.035     1.801     0.132 
 C                     4.727     2.614     0.132 
 C                     0.722     1.863    -0.395 
 C                    -0.577     2.609    -0.755 
 C                     7.293    -0.551     0.132 
 C                     8.651     0.175     0.132 
 C                     8.701     1.714     0.132 
 C                     7.393     2.527     0.132 
 H                    -0.708    -1.428     0.283 
 H                     1.938    -1.428     0.619 
 H                    -2.926    -0.155    -0.331 
 H                     2.104     3.664    -0.691 
 H                    -2.843     2.391    -0.986 
 H                     4.592    -1.546    -0.001 
 H                     4.762     3.695     0.265 
 H                    -0.542     3.664    -1.027 
 H                     7.257    -1.641     0.132 
 H                     9.577    -0.401     0.132 
 H                     9.662     2.228     0.132 
 H                     7.429     3.617     0.132 
 

 GradGradGradGradGradGradGradGradGradGradGradGradGradGradGradGradGradGrad
 Berny optimization.
 Initialization pass.
                           ----------------------------
                           !    Initial Parameters    !
                           ! (Angstroms and Degrees)  !
 --------------------------                            --------------------------
 ! Name  Definition              Value          Derivative Info.                !
 --------------------------------------------------------------------------------
 ! R1    R(1,2)                  1.5408         estimate D2E/DX2                !
 ! R2    R(1,3)                  1.5401         estimate D2E/DX2                !
 ! R3    R(1,13)                 1.5392         estimate D2E/DX2                !
 ! R4    R(2,4)                  1.5401         estimate D2E/DX2                !
 ! R5    R(2,19)                 1.0898         estimate D2E/DX2                !
 ! R6    R(3,6)                  1.5395         estimate D2E/DX2                !
 ! R7    R(3,20)                 1.0908         estimate D2E/DX2                !
 ! R8    R(4,7)                  1.5402         estimate D2E/DX2                !
 ! R9    R(4,21)                 1.0891         estimate D2E/DX2                !
 ! R10   R(5,8)                  1.5391         estimate D2E/DX2                !
 ! R11   R(5,13)                 1.5408         estimate D2E/DX2                !
 ! R12   R(5,22)                 1.09           estimate D2E/DX2                !
 ! R13   R(6,8)                  1.5404         estimate D2E/DX2                !
 ! R14   R(6,9)                  1.5639         estimate D2E/DX2                !
 ! R15   R(7,14)                 1.54           estimate D2E/DX2                !
 ! R16   R(7,23)                 1.0901         estimate D2E/DX2                !
 ! R17   R(8,12)                 1.564          estimate D2E/DX2                !
 ! R18   R(9,10)                 1.5399         estimate D2E/DX2                !
 ! R19   R(9,24)                 1.0907         estimate D2E/DX2                !
 ! R20   R(10,11)                1.5398         estimate D2E/DX2                !
 ! R21   R(10,15)                1.5401         estimate D2E/DX2                !
 ! R22   R(11,12)                1.5401         estimate D2E/DX2                !
 ! R23   R(11,18)                1.5399         estimate D2E/DX2                !
 ! R24   R(12,25)                1.0897         estimate D2E/DX2                !
 ! R25   R(13,14)                1.5406         estimate D2E/DX2                !
 ! R26   R(14,26)                1.0901         estimate D2E/DX2                !
 ! R27   R(15,16)                1.5399         estimate D2E/DX2                !
 ! R28   R(15,27)                1.0906         estimate D2E/DX2                !
 ! R29   R(16,17)                1.5398         estimate D2E/DX2                !
 ! R30   R(16,28)                1.0905         estimate D2E/DX2                !
 ! R31   R(17,18)                1.5401         estimate D2E/DX2                !
 ! R32   R(17,29)                1.0898         estimate D2E/DX2                !
 ! R33   R(18,30)                1.0906         estimate D2E/DX2                !
 ! A1    A(2,1,3)              120.0024         estimate D2E/DX2                !
 ! A2    A(2,1,13)             119.9892         estimate D2E/DX2                !
 ! A3    A(3,1,13)             120.0083         estimate D2E/DX2                !
 ! A4    A(1,2,4)              120.0024         estimate D2E/DX2                !
 ! A5    A(1,2,19)             119.9912         estimate D2E/DX2                !
 ! A6    A(4,2,19)             120.0064         estimate D2E/DX2                !
 ! A7    A(1,3,6)              120.0162         estimate D2E/DX2                !
 ! A8    A(1,3,20)             119.9543         estimate D2E/DX2                !
 ! A9    A(6,3,20)             120.0295         estimate D2E/DX2                !
 ! A10   A(2,4,7)              119.9714         estimate D2E/DX2                !
 ! A11   A(2,4,21)             120.0197         estimate D2E/DX2                !
 ! A12   A(7,4,21)             120.0089         estimate D2E/DX2                !
 ! A13   A(8,5,13)             119.9886         estimate D2E/DX2                !
 ! A14   A(8,5,22)             120.0268         estimate D2E/DX2                !
 ! A15   A(13,5,22)            119.9846         estimate D2E/DX2                !
 ! A16   A(3,6,8)              119.9708         estimate D2E/DX2                !
 ! A17   A(3,6,9)              118.3049         estimate D2E/DX2                !
 ! A18   A(8,6,9)              117.4774         estimate D2E/DX2                !
 ! A19   A(4,7,14)             120.0436         estimate D2E/DX2                !
 ! A20   A(4,7,23)             120.0152         estimate D2E/DX2                !
 ! A21   A(14,7,23)            119.9412         estimate D2E/DX2                !
 ! A22   A(5,8,6)              120.0268         estimate D2E/DX2                !
 ! A23   A(5,8,12)             121.9595         estimate D2E/DX2                !
 ! A24   A(6,8,12)             117.4271         estimate D2E/DX2                !
 ! A25   A(6,9,10)             118.9929         estimate D2E/DX2                !
 ! A26   A(6,9,24)             121.2714         estimate D2E/DX2                !
 ! A27   A(10,9,24)            119.7357         estimate D2E/DX2                !
 ! A28   A(9,10,11)            119.9902         estimate D2E/DX2                !
 ! A29   A(9,10,15)            120.0072         estimate D2E/DX2                !
 ! A30   A(11,10,15)           120.0026         estimate D2E/DX2                !
 ! A31   A(10,11,12)           120.0026         estimate D2E/DX2                !
 ! A32   A(10,11,18)           119.9902         estimate D2E/DX2                !
 ! A33   A(12,11,18)           120.0072         estimate D2E/DX2                !
 ! A34   A(8,12,11)            119.001          estimate D2E/DX2                !
 ! A35   A(8,12,25)            121.2371         estimate D2E/DX2                !
 ! A36   A(11,12,25)           119.7619         estimate D2E/DX2                !
 ! A37   A(1,13,5)             119.9892         estimate D2E/DX2                !
 ! A38   A(1,13,14)            120.0395         estimate D2E/DX2                !
 ! A39   A(5,13,14)            119.9712         estimate D2E/DX2                !
 ! A40   A(7,14,13)            119.9538         estimate D2E/DX2                !
 ! A41   A(7,14,26)            120.0541         estimate D2E/DX2                !
 ! A42   A(13,14,26)           119.9921         estimate D2E/DX2                !
 ! A43   A(10,15,16)           120.0072         estimate D2E/DX2                !
 ! A44   A(10,15,27)           119.9718         estimate D2E/DX2                !
 ! A45   A(16,15,27)           120.021          estimate D2E/DX2                !
 ! A46   A(15,16,17)           119.9902         estimate D2E/DX2                !
 ! A47   A(15,16,28)           119.9877         estimate D2E/DX2                !
 ! A48   A(17,16,28)           120.0221         estimate D2E/DX2                !
 ! A49   A(16,17,18)           120.0026         estimate D2E/DX2                !
 ! A50   A(16,17,29)           120.0013         estimate D2E/DX2                !
 ! A51   A(18,17,29)           119.9961         estimate D2E/DX2                !
 ! A52   A(11,18,17)           120.0072         estimate D2E/DX2                !
 ! A53   A(11,18,30)           120.021          estimate D2E/DX2                !
 ! A54   A(17,18,30)           119.9718         estimate D2E/DX2                !
 ! D1    D(3,1,2,4)            180.0            estimate D2E/DX2                !
 ! D2    D(3,1,2,19)            -0.0464         estimate D2E/DX2                !
 ! D3    D(13,1,2,4)             0.0357         estimate D2E/DX2                !
 ! D4    D(13,1,2,19)          179.9893         estimate D2E/DX2                !
 ! D5    D(2,1,3,6)            179.9944         estimate D2E/DX2                !
 ! D6    D(2,1,3,20)             0.0542         estimate D2E/DX2                !
 ! D7    D(13,1,3,6)            -0.0413         estimate D2E/DX2                !
 ! D8    D(13,1,3,20)         -179.9816         estimate D2E/DX2                !
 ! D9    D(2,1,13,5)           180.0            estimate D2E/DX2                !
 ! D10   D(2,1,13,14)           -0.0249         estimate D2E/DX2                !
 ! D11   D(3,1,13,5)             0.0357         estimate D2E/DX2                !
 ! D12   D(3,1,13,14)         -179.9892         estimate D2E/DX2                !
 ! D13   D(1,2,4,7)             -0.0412         estimate D2E/DX2                !
 ! D14   D(1,2,4,21)          -179.992          estimate D2E/DX2                !
 ! D15   D(19,2,4,7)          -179.9949         estimate D2E/DX2                !
 ! D16   D(19,2,4,21)            0.0544         estimate D2E/DX2                !
 ! D17   D(1,3,6,8)              0.0108         estimate D2E/DX2                !
 ! D18   D(1,3,6,9)           -156.2689         estimate D2E/DX2                !
 ! D19   D(20,3,6,8)           179.951          estimate D2E/DX2                !
 ! D20   D(20,3,6,9)            23.6713         estimate D2E/DX2                !
 ! D21   D(2,4,7,14)             0.036          estimate D2E/DX2                !
 ! D22   D(2,4,7,23)           179.9961         estimate D2E/DX2                !
 ! D23   D(21,4,7,14)          179.9867         estimate D2E/DX2                !
 ! D24   D(21,4,7,23)           -0.0532         estimate D2E/DX2                !
 ! D25   D(13,5,8,6)            -0.0308         estimate D2E/DX2                !
 ! D26   D(13,5,8,12)         -171.021          estimate D2E/DX2                !
 ! D27   D(22,5,8,6)          -179.9828         estimate D2E/DX2                !
 ! D28   D(22,5,8,12)            9.027          estimate D2E/DX2                !
 ! D29   D(8,5,13,1)             0.0003         estimate D2E/DX2                !
 ! D30   D(8,5,13,14)         -179.9748         estimate D2E/DX2                !
 ! D31   D(22,5,13,1)          179.9524         estimate D2E/DX2                !
 ! D32   D(22,5,13,14)          -0.0227         estimate D2E/DX2                !
 ! D33   D(3,6,8,5)              0.0252         estimate D2E/DX2                !
 ! D34   D(3,6,8,12)           171.4162         estimate D2E/DX2                !
 ! D35   D(9,6,8,5)            156.4965         estimate D2E/DX2                !
 ! D36   D(9,6,8,12)           -32.1125         estimate D2E/DX2                !
 ! D37   D(3,6,9,10)          -178.8653         estimate D2E/DX2                !
 ! D38   D(3,6,9,24)             1.1388         estimate D2E/DX2                !
 ! D39   D(8,6,9,10)            24.2629         estimate D2E/DX2                !
 ! D40   D(8,6,9,24)          -155.7331         estimate D2E/DX2                !
 ! D41   D(4,7,14,13)           -0.0252         estimate D2E/DX2                !
 ! D42   D(4,7,14,26)          179.9394         estimate D2E/DX2                !
 ! D43   D(23,7,14,13)        -179.9853         estimate D2E/DX2                !
 ! D44   D(23,7,14,26)          -0.0207         estimate D2E/DX2                !
 ! D45   D(5,8,12,11)         -164.5397         estimate D2E/DX2                !
 ! D46   D(5,8,12,25)           15.4743         estimate D2E/DX2                !
 ! D47   D(6,8,12,11)           24.247          estimate D2E/DX2                !
 ! D48   D(6,8,12,25)         -155.739          estimate D2E/DX2                !
 ! D49   D(6,9,10,11)           -8.0688         estimate D2E/DX2                !
 ! D50   D(6,9,10,15)          171.9312         estimate D2E/DX2                !
 ! D51   D(24,9,10,11)         171.9272         estimate D2E/DX2                !
 ! D52   D(24,9,10,15)          -8.0728         estimate D2E/DX2                !
 ! D53   D(9,10,11,12)           0.0            estimate D2E/DX2                !
 ! D54   D(9,10,11,18)         180.0            estimate D2E/DX2                !
 ! D55   D(15,10,11,12)        180.0            estimate D2E/DX2                !
 ! D56   D(15,10,11,18)          0.0            estimate D2E/DX2                !
 ! D57   D(9,10,15,16)         180.0            estimate D2E/DX2                !
 ! D58   D(9,10,15,27)           0.0            estimate D2E/DX2                !
 ! D59   D(11,10,15,16)          0.0            estimate D2E/DX2                !
 ! D60   D(11,10,15,27)        180.0            estimate D2E/DX2                !
 ! D61   D(10,11,12,8)          -8.0685         estimate D2E/DX2                !
 ! D62   D(10,11,12,25)        171.9177         estimate D2E/DX2                !
 ! D63   D(18,11,12,8)         171.9315         estimate D2E/DX2                !
 ! D64   D(18,11,12,25)         -8.0823         estimate D2E/DX2                !
 ! D65   D(10,11,18,17)          0.0            estimate D2E/DX2                !
 ! D66   D(10,11,18,30)        180.0            estimate D2E/DX2                !
 ! D67   D(12,11,18,17)        180.0            estimate D2E/DX2                !
 ! D68   D(12,11,18,30)          0.0            estimate D2E/DX2                !
 ! D69   D(1,13,14,7)            0.0197         estimate D2E/DX2                !
 ! D70   D(1,13,14,26)        -179.945          estimate D2E/DX2                !
 ! D71   D(5,13,14,7)          179.9948         estimate D2E/DX2                !
 ! D72   D(5,13,14,26)           0.0301         estimate D2E/DX2                !
 ! D73   D(10,15,16,17)          0.0            estimate D2E/DX2                !
 ! D74   D(10,15,16,28)        180.0            estimate D2E/DX2                !
 ! D75   D(27,15,16,17)        180.0            estimate D2E/DX2                !
 ! D76   D(27,15,16,28)          0.0            estimate D2E/DX2                !
 ! D77   D(15,16,17,18)          0.0            estimate D2E/DX2                !
 ! D78   D(15,16,17,29)        180.0            estimate D2E/DX2                !
 ! D79   D(28,16,17,18)        180.0            estimate D2E/DX2                !
 ! D80   D(28,16,17,29)          0.0            estimate D2E/DX2                !
 ! D81   D(16,17,18,11)          0.0            estimate D2E/DX2                !
 ! D82   D(16,17,18,30)        180.0            estimate D2E/DX2                !
 ! D83   D(29,17,18,11)        180.0            estimate D2E/DX2                !
 ! D84   D(29,17,18,30)          0.0            estimate D2E/DX2                !
 --------------------------------------------------------------------------------
 Trust Radius=3.00D-01 FncErr=1.00D-07 GrdErr=1.00D-06 EigMax=2.50D+02 EigMin=1.00D-04
 Number of steps in this run=    180 maximum allowed number of steps=    180.
 GradGradGradGradGradGradGradGradGradGradGradGradGradGradGradGradGradGrad

                          Input orientation:                          
 ---------------------------------------------------------------------
 Center     Atomic      Atomic             Coordinates (Angstroms)
 Number     Number       Type             X           Y           Z
 ---------------------------------------------------------------------
      1          6           0        0.674000    0.373000   -0.012000
      2          6           0       -0.674000   -0.373000    0.012000
      3          6           0        1.973000   -0.372000    0.348000
      4          6           0       -1.973000    0.372000   -0.348000
      5          6           0        2.070000    2.609000   -0.419000
      6          6           0        3.320000    0.373000    0.324000
      7          6           0       -1.924000    1.863000   -0.731000
      8          6           0        3.368000    1.864000   -0.060000
      9          6           0        4.627000   -0.464000    0.132000
     10          6           0        5.985000    0.262000    0.132000
     11          6           0        6.035000    1.801000    0.132000
     12          6           0        4.727000    2.614000    0.132000
     13          6           0        0.722000    1.863000   -0.395000
     14          6           0       -0.577000    2.609000   -0.755000
     15          6           0        7.293000   -0.551000    0.132000
     16          6           0        8.651000    0.175000    0.132000
     17          6           0        8.701000    1.714000    0.132000
     18          6           0        7.393000    2.527000    0.132000
     19          1           0       -0.708000   -1.428000    0.283000
     20          1           0        1.938000   -1.428000    0.619000
     21          1           0       -2.926000   -0.155000   -0.331000
     22          1           0        2.104000    3.664000   -0.691000
     23          1           0       -2.843000    2.391000   -0.986000
     24          1           0        4.592000   -1.546000   -0.001000
     25          1           0        4.762000    3.695000    0.265000
     26          1           0       -0.542000    3.664000   -1.027000
     27          1           0        7.257000   -1.641000    0.132000
     28          1           0        9.577000   -0.401000    0.132000
     29          1           0        9.662000    2.228000    0.132000
     30          1           0        7.429000    3.617000    0.132000
 ---------------------------------------------------------------------
                    Distance matrix (angstroms):
                    1          2          3          4          5
     1  C    0.000000
     2  C    1.540843   0.000000
     3  C    1.540138   2.668240   0.000000
     4  C    2.668240   1.540138   4.075398   0.000000
     5  C    2.667238   4.075245   3.079620   4.621153   0.000000
     6  C    2.667248   4.075033   1.539484   5.335488   2.667254
     7  C    3.080043   2.667254   4.620181   1.540185   4.075033
     8  C    3.079451   4.620294   2.666868   5.552953   1.539061
     9  C    4.043206   5.303139   2.664364   6.670030   4.035490
    10  C    5.314111   6.690284   4.067525   7.973222   4.597742
    11  C    5.549796   7.053464   4.611771   8.148651   4.083833
    12  C    4.633533   6.173117   4.067846   7.081452   2.713536
    13  C    1.539186   2.667238   2.666885   3.080311   1.540843
    14  C    2.667723   3.080588   4.074981   2.668077   2.668240
    15  C    6.684734   7.969892   5.327391   9.324220   6.129350
    16  C    7.980756   9.341859   6.703846  10.636662   7.038289
    17  C    8.139518   9.605238   7.047272  10.768734   6.713776
    18  C    7.057295   8.573266   6.150387   9.622701   5.352070
    19  H    2.289225   1.089781   2.882208   2.288752   4.950501
    20  H    2.288986   2.881669   1.090780   4.412597   4.170400
    21  H    3.652471   2.288379   4.950589   1.089140   5.710294
    22  H    3.651934   4.950643   4.169650   5.251366   1.090030
    23  H    4.170167   3.652432   5.710305   2.289171   4.950412
    24  H    4.362729   5.395077   2.891235   6.848238   4.878446
    25  H    5.274861   6.794316   4.932129   7.535139   2.982300
    26  H    3.652337   4.170649   4.950267   3.653227   2.881880
    27  H    6.885697   8.032620   5.438536   9.459147   6.728378
    28  H    8.937741  10.251741   7.607123  11.585786   8.106710
    29  H    9.178557  10.658916   8.119568  11.791877   7.621498
    30  H    7.494951   9.032890   6.762153   9.957812   5.480743
                    6          7          8          9         10
     6  C    0.000000
     7  C    5.552717   0.000000
     8  C    1.540403   5.334370   0.000000
     9  C    1.563868   7.005376   2.653588   0.000000
    10  C    2.674212   8.115433   3.074404   1.539883   0.000000
    11  C    3.073642   8.005891   2.674644   2.666963   1.539812
    12  C    2.653035   6.748672   1.564048   3.079624   2.667296
    13  C    3.080043   2.667248   2.667122   4.576208   5.526310
    14  C    4.620665   1.539968   4.074442   6.108332   7.025313
    15  C    4.083549   9.566883   4.612452   2.667419   1.540076
    16  C    5.338130  10.743591   5.549745   4.074420   2.667419
    17  C    5.548901  10.661032   5.338563   4.619649   3.079766
    18  C    4.611497   9.380413   4.083755   4.073922   2.666963
    19  H    4.412490   3.652059   5.250589   5.423497   6.904719
    20  H    2.289225   5.250545   3.652835   2.897790   4.412650
    21  H    6.302406   2.288302   6.615454   7.573484   8.932759
    22  H    3.652337   4.412481   2.288200   4.907468   5.226193
    23  H    6.615965   1.090124   6.301724   8.074766   9.149653
    24  H    2.325117   7.390023   3.623501   1.090705   2.286264
    25  H    3.621951   7.003630   2.324096   4.163315   3.646767
    26  H    5.250802   2.289354   4.411710   6.715819   7.451081
    27  H    4.426401   9.864763   5.238913   2.881359   2.288972
    28  H    6.307614  11.753445   6.612017   4.950401   3.652675
    29  H    6.610511  11.623829   6.307440   5.709474   4.169591
    30  H    5.238729   9.555098   4.427369   4.950330   3.652555
                   11         12         13         14         15
    11  C    0.000000
    12  C    1.540076   0.000000
    13  C    5.339433   4.108741   0.000000
    14  C    6.719983   5.377658   1.540622   0.000000
    15  C    2.667296   4.074504   7.020197   8.526973   0.000000
    16  C    3.080151   4.620227   8.123799   9.584733   1.539883
    17  C    2.667419   4.074638   7.997773   9.363177   2.666963
    18  C    1.539883   2.667419   6.724646   8.019625   3.079624
    19  H    7.477787   6.774938   3.651748   4.170369   8.050337
    20  H    5.239181   4.934922   3.652059   4.950805   5.448149
    21  H    9.183672   8.151695   4.169451   3.652023  10.237145
    22  H    4.427286   2.942781   2.289354   2.881819   6.735672
    23  H    8.967547   7.655361   3.652025   2.288152  10.613378
    24  H    3.647238   4.164314   5.172371   6.674661   2.881513
    25  H    2.285925   1.089713   4.484799   5.542988   4.944913
    26  H    6.933324   5.496193   2.289262   1.090061   8.971997
    27  H    3.652485   4.950346   7.433840   8.956608   1.090594
    28  H    4.170680   5.710755   9.155023  10.627821   2.288920
    29  H    3.652048   4.950073   8.962955  10.284408   3.651712
    30  H    2.289343   2.882154   6.952560   8.117812   4.170218
                   16         17         18         19         20
    16  C    0.000000
    17  C    1.539812   0.000000
    18  C    2.667296   1.540076   0.000000
    19  H    9.496488   9.920899   9.016154   0.000000
    20  H    6.918898   7.473119   6.755458   2.667248   0.000000
    21  H   11.590953  11.785358  10.671891   2.630028   5.116789
    22  H    7.464158   6.928220   5.472076   5.897837   5.260430
    23  H   11.758938  11.617753  10.297772   4.555584   6.326037
    24  H    4.410783   5.246825   4.944959   5.308915   2.728010
    25  H    5.247134   4.411096   2.881679   7.494421   5.860497
    26  H    9.900891   9.517291   8.099400   5.260430   5.898151
    27  H    2.289343   3.652555   4.170218   7.969278   5.345493
    28  H    1.090528   2.289236   3.652813  10.337251   7.723096
    29  H    2.288434   1.089824   2.288616  10.996638   8.559421
    30  H    3.652485   2.288972   1.090594   9.575260   7.472635
                   21         22         23         24         25
    21  H    0.000000
    22  H    6.325762   0.000000
    23  H    2.630215   5.116675   0.000000
    24  H    7.652719   5.814666   8.470503   0.000000
    25  H    8.618762   2.824865   7.816741   5.250499   0.000000
    26  H    4.555506   2.667248   2.629983   7.386118   5.459180
    27  H   10.301265   7.441355  10.932381   2.670007   5.891995
    28  H   12.513988   8.546770  12.778951   5.116536   6.322905
    29  H   12.819938   7.737105  12.555936   6.321840   5.116618
    30  H   11.030339   5.388429  10.405142   5.892608   2.671453
                   26         27         28         29         30
    26  H    0.000000
    27  H    9.503195   0.000000
    28  H   10.966388   2.630589   0.000000
    29  H   10.369522   4.555566   2.630374   0.000000
    30  H    8.054957   5.260812   4.556120   2.629755   0.000000
 Stoichiometry    C18H12
 Framework group  C1[X(C18H12)]
 Deg. of freedom    84
 Full point group                 C1      NOp   1
 Largest Abelian subgroup         C1      NOp   1
 Largest concise Abelian subgroup C1      NOp   1
                         Standard orientation:                         
 ---------------------------------------------------------------------
 Center     Atomic      Atomic             Coordinates (Angstroms)
 Number     Number       Type             X           Y           Z
 ---------------------------------------------------------------------
      1          6           0       -2.662320   -0.757045    0.121705
      2          6           0       -3.994810   -1.530710    0.132183
      3          6           0       -1.332204   -1.511648    0.304442
      4          6           0       -5.324926   -0.776107   -0.050555
      5          6           0       -1.328376    1.543745   -0.081067
      6          6           0       -0.000697   -0.738998    0.293897
      7          6           0       -5.322488    0.752033   -0.242781
      8          6           0        0.000679    0.789246    0.100742
      9          6           0        1.303977   -1.514996   -0.082048
     10          6           0        2.648258   -0.763967   -0.071921
     11          6           0        2.675122    0.763466    0.121076
     12          6           0        1.357704    1.539870    0.303946
     13          6           0       -2.660866    0.770081   -0.070588
     14          6           0       -3.990996    1.525675   -0.253198
     15          6           0        3.965676   -1.540371   -0.254790
     16          6           0        5.309957   -0.789341   -0.244662
     17          6           0        5.336821    0.738092   -0.051665
     18          6           0        4.019403    1.514495    0.131204
     19          1           0       -3.995865   -2.611974    0.268155
     20          1           0       -1.334242   -2.593927    0.440347
     21          1           0       -6.266965   -1.322673   -0.043063
     22          1           0       -1.327384    2.625136   -0.218028
     23          1           0       -6.263536    1.286859   -0.372251
     24          1           0        1.276857   -2.572076   -0.349415
     25          1           0        1.384839    2.595958    0.571185
     26          1           0       -3.989007    2.607088   -0.390221
     27          1           0        3.946063   -2.622192   -0.391445
     28          1           0        6.242631   -1.339429   -0.374180
     29          1           0        6.288109    1.269802   -0.044468
     30          1           0        4.039016    2.596316    0.267859
 ---------------------------------------------------------------------
 Rotational constants (GHZ):           1.3864654           0.1811941           0.1611605
 Standard basis: 6-31G (6D, 7F)
 There are   186 symmetry adapted cartesian basis functions of A   symmetry.
 There are   186 symmetry adapted basis functions of A   symmetry.
   186 basis functions,   444 primitive gaussians,   186 cartesian basis functions
    60 alpha electrons       60 beta electrons
       nuclear repulsion energy      1027.9749603162 Hartrees.
 NAtoms=   30 NActive=   30 NUniq=   30 SFac= 1.00D+00 NAtFMM=   60 NAOKFM=F Big=F
 Integral buffers will be    131072 words long.
 Raffenetti 2 integral format.
 Two-electron integral symmetry is turned on.
 One-electron integrals computed using PRISM.
 NBasis=   186 RedAO= T EigKep=  1.06D-03  NBF=   186
 NBsUse=   186 1.00D-06 EigRej= -1.00D+00 NBFU=   186
 ExpMin= 1.61D-01 ExpMax= 3.05D+03 ExpMxC= 4.57D+02 IAcc=3 IRadAn=         5 AccDes= 0.00D+00
 Harris functional with IExCor=  402 and IRadAn=       5 diagonalized for initial guess.
 HarFok:  IExCor=  402 AccDes= 0.00D+00 IRadAn=         5 IDoV= 1 UseB2=F ITyADJ=14
 ICtDFT=  3500011 ScaDFX=  1.000000  1.000000  1.000000  1.000000
 FoFCou: FMM=F IPFlag=           0 FMFlag=      100000 FMFlg1=           0
         NFxFlg=           0 DoJE=T BraDBF=F KetDBF=T FulRan=T
         wScrn=  0.000000 ICntrl=       500 IOpCl=  0 I1Cent=   200000004 NGrid=           0
         NMat0=    1 NMatS0=      1 NMatT0=    0 NMatD0=    1 NMtDS0=    0 NMtDT0=    0
 Petite list used in FoFCou.
 Keep R1 ints in memory in canonical form, NReq=155286646.
 Requested convergence on RMS density matrix=1.00D-08 within 128 cycles.
 Requested convergence on MAX density matrix=1.00D-06.
 Requested convergence on             energy=1.00D-06.
 No special actions if energy rises.
 Integral accuracy reduced to 1.0D-05 until final iterations.
 Initial convergence to 1.0D-05 achieved.  Increase integral accuracy.
 SCF Done:  E(RB3LYP) =  -692.739255704     A.U. after   16 cycles
            NFock= 16  Conv=0.40D-08     -V/T= 2.0130

 **********************************************************************

            Population analysis using the SCF density.

 **********************************************************************

 Orbital symmetries:
       Occupied  (A) (A) (A) (A) (A) (A) (A) (A) (A) (A) (A) (A)
                 (A) (A) (A) (A) (A) (A) (A) (A) (A) (A) (A) (A)
                 (A) (A) (A) (A) (A) (A) (A) (A) (A) (A) (A) (A)
                 (A) (A) (A) (A) (A) (A) (A) (A) (A) (A) (A) (A)
                 (A) (A) (A) (A) (A) (A) (A) (A) (A) (A) (A) (A)
       Virtual   (A) (A) (A) (A) (A) (A) (A) (A) (A) (A) (A) (A)
                 (A) (A) (A) (A) (A) (A) (A) (A) (A) (A) (A) (A)
                 (A) (A) (A) (A) (A) (A) (A) (A) (A) (A) (A) (A)
                 (A) (A) (A) (A) (A) (A) (A) (A) (A) (A) (A) (A)
                 (A) (A) (A) (A) (A) (A) (A) (A) (A) (A) (A) (A)
                 (A) (A) (A) (A) (A) (A) (A) (A) (A) (A) (A) (A)
                 (A) (A) (A) (A) (A) (A) (A) (A) (A) (A) (A) (A)
                 (A) (A) (A) (A) (A) (A) (A) (A) (A) (A) (A) (A)
                 (A) (A) (A) (A) (A) (A) (A) (A) (A) (A) (A) (A)
                 (A) (A) (A) (A) (A) (A) (A) (A) (A) (A) (A) (A)
                 (A) (A) (A) (A) (A) (A)
 The electronic state is 1-A.
 Alpha  occ. eigenvalues --  -10.24022 -10.23922 -10.23910 -10.23873 -10.23654
 Alpha  occ. eigenvalues --  -10.23578 -10.22406 -10.22387 -10.22381 -10.22366
 Alpha  occ. eigenvalues --  -10.22356 -10.22349 -10.22334 -10.22202 -10.22186
 Alpha  occ. eigenvalues --  -10.22156 -10.22145 -10.22123  -0.82835  -0.81014
 Alpha  occ. eigenvalues --   -0.78084  -0.75096  -0.74469  -0.73387  -0.71178
 Alpha  occ. eigenvalues --   -0.70311  -0.66686  -0.64034  -0.59862  -0.59221
 Alpha  occ. eigenvalues --   -0.58949  -0.58445  -0.55806  -0.50398  -0.49189
 Alpha  occ. eigenvalues --   -0.48045  -0.46775  -0.46687  -0.46142  -0.42489
 Alpha  occ. eigenvalues --   -0.41997  -0.41492  -0.41268  -0.39996  -0.39914
 Alpha  occ. eigenvalues --   -0.37971  -0.36895  -0.36120  -0.35744  -0.34797
 Alpha  occ. eigenvalues --   -0.34102  -0.33884  -0.32413  -0.30230  -0.27511
 Alpha  occ. eigenvalues --   -0.26411  -0.25511  -0.22950  -0.21750  -0.17345
 Alpha virt. eigenvalues --   -0.09720  -0.04732  -0.03395  -0.00879   0.00676
 Alpha virt. eigenvalues --    0.00921   0.05496   0.10143   0.10294   0.10671
 Alpha virt. eigenvalues --    0.11566   0.11669   0.11917   0.12443   0.13346
 Alpha virt. eigenvalues --    0.13436   0.14132   0.14207   0.15426   0.15731
 Alpha virt. eigenvalues --    0.16428   0.17478   0.18603   0.18987   0.19284
 Alpha virt. eigenvalues --    0.21912   0.24323   0.24475   0.24623   0.24962
 Alpha virt. eigenvalues --    0.27821   0.28062   0.29288   0.30565   0.31694
 Alpha virt. eigenvalues --    0.33018   0.37226   0.39320   0.42604   0.44072
 Alpha virt. eigenvalues --    0.44861   0.46373   0.51490   0.51517   0.52478
 Alpha virt. eigenvalues --    0.52643   0.54609   0.54821   0.55704   0.55778
 Alpha virt. eigenvalues --    0.56278   0.56696   0.57463   0.57568   0.57784
 Alpha virt. eigenvalues --    0.58632   0.59186   0.59238   0.59608   0.59783
 Alpha virt. eigenvalues --    0.61446   0.61884   0.62294   0.62662   0.62940
 Alpha virt. eigenvalues --    0.63160   0.64255   0.64414   0.65447   0.67213
 Alpha virt. eigenvalues --    0.70081   0.71260   0.71811   0.76606   0.80382
 Alpha virt. eigenvalues --    0.80702   0.81070   0.81593   0.81864   0.82819
 Alpha virt. eigenvalues --    0.85997   0.86482   0.87943   0.88021   0.88634
 Alpha virt. eigenvalues --    0.88972   0.89628   0.91683   0.92572   0.92977
 Alpha virt. eigenvalues --    0.94868   0.96079   0.96189   0.96741   0.97605
 Alpha virt. eigenvalues --    1.00195   1.01095   1.02180   1.03799   1.04809
 Alpha virt. eigenvalues --    1.05697   1.07010   1.07467   1.08886   1.11453
 Alpha virt. eigenvalues --    1.11977   1.12275   1.13814   1.16876   1.18360
 Alpha virt. eigenvalues --    1.20826   1.23769   1.28095   1.30603   1.31465
 Alpha virt. eigenvalues --    1.36394   1.38756   1.39664   1.42978   1.43068
 Alpha virt. eigenvalues --    1.43469   1.43993   1.51324   1.73689   1.78957
 Alpha virt. eigenvalues --    1.79226
          Condensed to atoms (all electrons):
               1          2          3          4          5          6
     1  C    4.901384   0.416445   0.430247  -0.031696  -0.040171  -0.029672
     2  C    0.416445   5.038038  -0.032888   0.494786   0.003236   0.002230
     3  C    0.430247  -0.032888   5.148667   0.001890  -0.020781   0.412438
     4  C   -0.031696   0.494786   0.001890   4.977461   0.000145  -0.000072
     5  C   -0.040171   0.003236  -0.020781   0.000145   5.127542  -0.042368
     6  C   -0.029672   0.002230   0.412438  -0.000072  -0.042368   4.949932
     7  C   -0.011029  -0.036637   0.000142   0.446314   0.001884   0.000004
     8  C   -0.006422   0.000108  -0.043068   0.000004   0.425688   0.409690
     9  C    0.001784  -0.000053  -0.031508   0.000000   0.003530   0.400428
    10  C   -0.000065   0.000000   0.002482   0.000000   0.000188  -0.030513
    11  C    0.000000   0.000000   0.000142   0.000000   0.001925  -0.007027
    12  C    0.000159  -0.000001   0.003552   0.000000  -0.027908  -0.036685
    13  C    0.421704  -0.036528  -0.037371  -0.011095   0.428778  -0.008780
    14  C   -0.036516  -0.019336   0.003167  -0.036787  -0.032509   0.000158
    15  C    0.000000   0.000000  -0.000054   0.000000  -0.000001   0.001925
    16  C    0.000000   0.000000   0.000000   0.000000   0.000000  -0.000066
    17  C    0.000000   0.000000   0.000000   0.000000   0.000000   0.000002
    18  C    0.000000   0.000000  -0.000001   0.000000  -0.000045   0.000131
    19  H   -0.035341   0.353723  -0.001610  -0.031787  -0.000076   0.000061
    20  H   -0.033264  -0.001528   0.351838   0.000054   0.000273  -0.031838
    21  H    0.002102  -0.030843  -0.000064   0.353919   0.000001   0.000000
    22  H    0.002139  -0.000072   0.000197   0.000003   0.352764   0.002374
    23  H    0.000245   0.002445   0.000001  -0.034489  -0.000064   0.000000
    24  H    0.000079   0.000001  -0.001935   0.000000  -0.000083  -0.033536
    25  H    0.000003   0.000000  -0.000072   0.000000  -0.001546   0.001860
    26  H    0.002184   0.000230  -0.000074   0.002205  -0.001624   0.000003
    27  H    0.000000   0.000000   0.000001   0.000000   0.000000   0.000047
    28  H    0.000000   0.000000   0.000000   0.000000   0.000000   0.000000
    29  H    0.000000   0.000000   0.000000   0.000000   0.000000   0.000000
    30  H    0.000000   0.000000   0.000000   0.000000   0.000001   0.000003
               7          8          9         10         11         12
     1  C   -0.011029  -0.006422   0.001784  -0.000065   0.000000   0.000159
     2  C   -0.036637   0.000108  -0.000053   0.000000   0.000000  -0.000001
     3  C    0.000142  -0.043068  -0.031508   0.002482   0.000142   0.003552
     4  C    0.446314   0.000004   0.000000   0.000000   0.000000   0.000000
     5  C    0.001884   0.425688   0.003530   0.000188   0.001925  -0.027908
     6  C    0.000004   0.409690   0.400428  -0.030513  -0.007027  -0.036685
     7  C    4.977858  -0.000073   0.000000   0.000000   0.000000   0.000000
     8  C   -0.000073   4.934631  -0.036760  -0.007400  -0.029175   0.398738
     9  C    0.000000  -0.036760   5.159267   0.425942  -0.036774  -0.023696
    10  C    0.000000  -0.007400   0.425942   4.913383   0.416290  -0.038619
    11  C    0.000000  -0.029175  -0.036774   0.416290   4.906584   0.430784
    12  C    0.000000   0.398738  -0.023696  -0.038619   0.430784   5.154797
    13  C   -0.031522  -0.026758   0.000071   0.000002  -0.000061   0.001847
    14  C    0.494548   0.002127  -0.000001   0.000000   0.000000  -0.000048
    15  C    0.000000   0.000141  -0.034289   0.415156  -0.035835   0.003252
    16  C    0.000000   0.000001   0.001947  -0.031872  -0.011121   0.000151
    17  C    0.000000  -0.000069   0.000147  -0.011055  -0.031684   0.001917
    18  C    0.000000   0.002045   0.003265  -0.035874   0.415458  -0.033961
    19  H    0.002213   0.000004   0.000001   0.000000   0.000000   0.000000
    20  H    0.000004   0.002207  -0.001845   0.000048   0.000003  -0.000080
    21  H   -0.034535   0.000000   0.000000   0.000000   0.000000   0.000000
    22  H    0.000056  -0.033080  -0.000072   0.000000   0.000048  -0.001465
    23  H    0.353705   0.000000   0.000000   0.000000   0.000000   0.000000
    24  H    0.000000   0.002005   0.354844  -0.034060   0.002148   0.000239
    25  H    0.000000  -0.033363   0.000225   0.002200  -0.034100   0.354842
    26  H   -0.031753   0.000073   0.000000   0.000000   0.000000   0.000001
    27  H    0.000000   0.000004  -0.001708  -0.035149   0.002241  -0.000073
    28  H    0.000000   0.000000  -0.000065   0.002118   0.000242   0.000001
    29  H    0.000000   0.000000   0.000000   0.000242   0.002129  -0.000065
    30  H    0.000000   0.000057  -0.000072   0.002245  -0.035222  -0.001682
              13         14         15         16         17         18
     1  C    0.421704  -0.036516   0.000000   0.000000   0.000000   0.000000
     2  C   -0.036528  -0.019336   0.000000   0.000000   0.000000   0.000000
     3  C   -0.037371   0.003167  -0.000054   0.000000   0.000000  -0.000001
     4  C   -0.011095  -0.036787   0.000000   0.000000   0.000000   0.000000
     5  C    0.428778  -0.032509  -0.000001   0.000000   0.000000  -0.000045
     6  C   -0.008780   0.000158   0.001925  -0.000066   0.000002   0.000131
     7  C   -0.031522   0.494548   0.000000   0.000000   0.000000   0.000000
     8  C   -0.026758   0.002127   0.000141   0.000001  -0.000069   0.002045
     9  C    0.000071  -0.000001  -0.034289   0.001947   0.000147   0.003265
    10  C    0.000002   0.000000   0.415156  -0.031872  -0.011055  -0.035874
    11  C   -0.000061   0.000000  -0.035835  -0.011121  -0.031684   0.415458
    12  C    0.001847  -0.000048   0.003252   0.000151   0.001917  -0.033961
    13  C    4.904422   0.417710   0.000000   0.000000   0.000000   0.000000
    14  C    0.417710   5.036168   0.000000   0.000000   0.000000   0.000000
    15  C    0.000000   0.000000   5.039346   0.496113  -0.036917  -0.019301
    16  C    0.000000   0.000000   0.496113   4.980457   0.444343  -0.037039
    17  C    0.000000   0.000000  -0.036917   0.444343   4.979290   0.496420
    18  C    0.000000   0.000000  -0.019301  -0.037039   0.496420   5.038590
    19  H    0.002186   0.000235   0.000000   0.000000   0.000000   0.000000
    20  H    0.002039  -0.000076   0.000000   0.000000   0.000000   0.000000
    21  H    0.000242   0.002446   0.000000   0.000000   0.000000   0.000000
    22  H   -0.033628  -0.001603   0.000000   0.000000   0.000000   0.000001
    23  H    0.002106  -0.030863   0.000000   0.000000   0.000000   0.000000
    24  H    0.000003   0.000000  -0.001460   0.000054   0.000004  -0.000080
    25  H    0.000059   0.000001  -0.000078   0.000004   0.000056  -0.001578
    26  H   -0.035328   0.353810   0.000000   0.000000   0.000000   0.000000
    27  H    0.000000   0.000000   0.353306  -0.031774   0.002220   0.000228
    28  H    0.000000   0.000000  -0.030868   0.353483  -0.034652   0.002465
    29  H    0.000000   0.000000   0.002476  -0.034681   0.353483  -0.030869
    30  H    0.000000   0.000000   0.000224   0.002223  -0.031890   0.353545
              19         20         21         22         23         24
     1  C   -0.035341  -0.033264   0.002102   0.002139   0.000245   0.000079
     2  C    0.353723  -0.001528  -0.030843  -0.000072   0.002445   0.000001
     3  C   -0.001610   0.351838  -0.000064   0.000197   0.000001  -0.001935
     4  C   -0.031787   0.000054   0.353919   0.000003  -0.034489   0.000000
     5  C   -0.000076   0.000273   0.000001   0.352764  -0.000064  -0.000083
     6  C    0.000061  -0.031838   0.000000   0.002374   0.000000  -0.033536
     7  C    0.002213   0.000004  -0.034535   0.000056   0.353705   0.000000
     8  C    0.000004   0.002207   0.000000  -0.033080   0.000000   0.002005
     9  C    0.000001  -0.001845   0.000000  -0.000072   0.000000   0.354844
    10  C    0.000000   0.000048   0.000000   0.000000   0.000000  -0.034060
    11  C    0.000000   0.000003   0.000000   0.000048   0.000000   0.002148
    12  C    0.000000  -0.000080   0.000000  -0.001465   0.000000   0.000239
    13  C    0.002186   0.002039   0.000242  -0.033628   0.002106   0.000003
    14  C    0.000235  -0.000076   0.002446  -0.001603  -0.030863   0.000000
    15  C    0.000000   0.000000   0.000000   0.000000   0.000000  -0.001460
    16  C    0.000000   0.000000   0.000000   0.000000   0.000000   0.000054
    17  C    0.000000   0.000000   0.000000   0.000000   0.000000   0.000004
    18  C    0.000000   0.000000   0.000000   0.000001   0.000000  -0.000080
    19  H    0.573464   0.002846  -0.001370   0.000001  -0.000081   0.000001
    20  H    0.002846   0.569132  -0.000001   0.000005   0.000000   0.002365
    21  H   -0.001370  -0.000001   0.576445   0.000000  -0.001467   0.000000
    22  H    0.000001   0.000005   0.000000   0.570365  -0.000001   0.000001
    23  H   -0.000081   0.000000  -0.001467  -0.000001   0.576450   0.000000
    24  H    0.000001   0.002365   0.000000   0.000001   0.000000   0.567488
    25  H    0.000000   0.000001   0.000000   0.001907   0.000000   0.000006
    26  H    0.000004   0.000001  -0.000080   0.002810  -0.001368   0.000000
    27  H    0.000000   0.000000   0.000000   0.000000   0.000000   0.002839
    28  H    0.000000   0.000000   0.000000   0.000000   0.000000   0.000000
    29  H    0.000000   0.000000   0.000000   0.000000   0.000000   0.000000
    30  H    0.000000   0.000000   0.000000   0.000001   0.000000   0.000001
              25         26         27         28         29         30
     1  C    0.000003   0.002184   0.000000   0.000000   0.000000   0.000000
     2  C    0.000000   0.000230   0.000000   0.000000   0.000000   0.000000
     3  C   -0.000072  -0.000074   0.000001   0.000000   0.000000   0.000000
     4  C    0.000000   0.002205   0.000000   0.000000   0.000000   0.000000
     5  C   -0.001546  -0.001624   0.000000   0.000000   0.000000   0.000001
     6  C    0.001860   0.000003   0.000047   0.000000   0.000000   0.000003
     7  C    0.000000  -0.031753   0.000000   0.000000   0.000000   0.000000
     8  C   -0.033363   0.000073   0.000004   0.000000   0.000000   0.000057
     9  C    0.000225   0.000000  -0.001708  -0.000065   0.000000  -0.000072
    10  C    0.002200   0.000000  -0.035149   0.002118   0.000242   0.002245
    11  C   -0.034100   0.000000   0.002241   0.000242   0.002129  -0.035222
    12  C    0.354842   0.000001  -0.000073   0.000001  -0.000065  -0.001682
    13  C    0.000059  -0.035328   0.000000   0.000000   0.000000   0.000000
    14  C    0.000001   0.353810   0.000000   0.000000   0.000000   0.000000
    15  C   -0.000078   0.000000   0.353306  -0.030868   0.002476   0.000224
    16  C    0.000004   0.000000  -0.031774   0.353483  -0.034681   0.002223
    17  C    0.000056   0.000000   0.002220  -0.034652   0.353483  -0.031890
    18  C   -0.001578   0.000000   0.000228   0.002465  -0.030869   0.353545
    19  H    0.000000   0.000004   0.000000   0.000000   0.000000   0.000000
    20  H    0.000001   0.000001   0.000000   0.000000   0.000000   0.000000
    21  H    0.000000  -0.000080   0.000000   0.000000   0.000000   0.000000
    22  H    0.001907   0.002810   0.000000   0.000000   0.000000   0.000001
    23  H    0.000000  -0.001368   0.000000   0.000000   0.000000   0.000000
    24  H    0.000006   0.000000   0.002839   0.000000   0.000000   0.000001
    25  H    0.568848   0.000000   0.000001   0.000000  -0.000001   0.002813
    26  H    0.000000   0.572999   0.000000   0.000000   0.000000   0.000000
    27  H    0.000001   0.000000   0.575485  -0.001381  -0.000081   0.000004
    28  H    0.000000   0.000000  -0.001381   0.578091  -0.001476  -0.000081
    29  H   -0.000001   0.000000  -0.000081  -0.001476   0.577916  -0.001386
    30  H    0.002813   0.000000   0.000004  -0.000081  -0.001386   0.575225
 Mulliken charges:
               1
     1  C    0.045699
     2  C   -0.153358
     3  C   -0.185337
     4  C   -0.130855
     5  C   -0.178779
     6  C    0.039270
     7  C   -0.131179
     8  C    0.038644
     9  C   -0.184608
    10  C    0.044310
    11  C    0.043005
    12  C   -0.185998
    13  C    0.039902
    14  C   -0.152631
    15  C   -0.153137
    16  C   -0.132222
    17  C   -0.131615
    18  C   -0.153400
    19  H    0.135525
    20  H    0.137815
    21  H    0.133206
    22  H    0.137247
    23  H    0.133379
    24  H    0.139078
    25  H    0.137913
    26  H    0.135908
    27  H    0.133789
    28  H    0.132122
    29  H    0.132314
    30  H    0.133992
 Sum of Mulliken charges =   0.00000
 Mulliken charges with hydrogens summed into heavy atoms:
               1
     1  C    0.045699
     2  C   -0.017833
     3  C   -0.047522
     4  C    0.002350
     5  C   -0.041532
     6  C    0.039270
     7  C    0.002201
     8  C    0.038644
     9  C   -0.045529
    10  C    0.044310
    11  C    0.043005
    12  C   -0.048084
    13  C    0.039902
    14  C   -0.016723
    15  C   -0.019348
    16  C   -0.000100
    17  C    0.000699
    18  C   -0.019408
 Electronic spatial extent (au):  <R**2>=           6342.6784
 Charge=              0.0000 electrons
 Dipole moment (field-independent basis, Debye):
    X=             -0.2596    Y=             -0.0563    Z=             -0.1759  Tot=              0.3186
 Quadrupole moment (field-independent basis, Debye-Ang):
   XX=            -84.8102   YY=            -87.2778   ZZ=           -114.7729
   XY=              0.2154   XZ=              0.0485   YZ=              0.5738
 Traceless Quadrupole moment (field-independent basis, Debye-Ang):
   XX=             10.8101   YY=              8.3425   ZZ=            -19.1526
   XY=              0.2154   XZ=              0.0485   YZ=              0.5738
 Octapole moment (field-independent basis, Debye-Ang**2):
  XXX=             -5.2552  YYY=             -0.3196  ZZZ=             -0.1031  XYY=             -1.1364
  XXY=              0.2563  XXZ=            -11.6682  XZZ=             -0.0028  YZZ=              0.0663
  YYZ=             -0.3196  XYZ=             12.2822
 Hexadecapole moment (field-independent basis, Debye-Ang**3):
 XXXX=          -6539.1350 YYYY=           -985.5796 ZZZZ=           -152.2922 XXXY=              8.8797
 XXXZ=              1.9413 YYYX=              1.3118 YYYZ=              4.7287 ZZZX=              0.1366
 ZZZY=              0.9933 XXYY=          -1287.4213 XXZZ=          -1473.6176 YYZZ=           -229.6903
 XXYZ=              1.2981 YYXZ=              0.1923 ZZXY=             -1.4132
 N-N= 1.027974960316D+03 E-N=-3.657976658574D+03  KE= 6.838426065439D+02
 Calling FoFJK, ICntrl=      2127 FMM=F ISym2X=0 I1Cent= 0 IOpClX= 0 NMat=1 NMatS=1 NMatT=0.
 ***** Axes restored to original set *****
 -------------------------------------------------------------------
 Center     Atomic                   Forces (Hartrees/Bohr)
 Number     Number              X              Y              Z
 -------------------------------------------------------------------
      1        6           0.011387221   -0.019319908    0.010947464
      2        6          -0.028538983    0.085408967   -0.025640182
      3        6          -0.003484542    0.082695651   -0.021159745
      4        6           0.091018078    0.022550182    0.005391024
      5        6          -0.004440592   -0.080734306    0.025494503
      6        6          -0.001995156   -0.037073814   -0.054572768
      7        6           0.088666294   -0.022178467    0.017100204
      8        6          -0.001581322    0.027991399    0.024054033
      9        6           0.013780024    0.089031665    0.021051259
     10        6          -0.016094490   -0.022833256   -0.004098773
     11        6          -0.016103763    0.023194334    0.006245255
     12        6           0.004961618   -0.087390180   -0.015872835
     13        6           0.013717311    0.019519295   -0.005054064
     14        6          -0.033397162   -0.085580345    0.017272194
     15        6           0.035832886    0.086222018   -0.003387471
     16        6          -0.089774019    0.024140783   -0.000244278
     17        6          -0.091880337   -0.018616952    0.000022397
     18        6           0.030584177   -0.088097812    0.002917107
     19        1           0.000694812    0.004111089   -0.000894632
     20        1           0.000549839    0.004216995   -0.003438242
     21        1           0.003516133    0.001471261    0.000002502
     22        1          -0.000225824   -0.004074734    0.002217733
     23        1           0.003892065   -0.001813573    0.001126598
     24        1          -0.001232548    0.004262866    0.007594574
     25        1          -0.000982268   -0.003341678   -0.008416993
     26        1           0.000390504   -0.004310590    0.001191399
     27        1          -0.000354363    0.004757909   -0.000008212
     28        1          -0.004201402    0.002146164    0.000555673
     29        1          -0.003932486   -0.001592226   -0.000443772
     30        1          -0.000771706   -0.004762736    0.000048045
 -------------------------------------------------------------------
 Cartesian Forces:  Max     0.091880337 RMS     0.034919063

 GradGradGradGradGradGradGradGradGradGradGradGradGradGradGradGradGradGrad
 Berny optimization.
 FormGI is forming the generalized inverse of G from B-inverse, IUseBI=4.
 Internal  Forces:  Max     0.108255180 RMS     0.030121260
 Search for a local minimum.
 Step number   1 out of a maximum of  180
 All quantities printed in internal units (Hartrees-Bohrs-Radians)
 Mixed Optimization -- RFO/linear search
 Second derivative matrix not updated -- first step.
 ITU=  0
     Eigenvalues ---    0.00232   0.00232   0.00233   0.00233   0.00234
     Eigenvalues ---    0.00235   0.00235   0.00235   0.00236   0.00237
     Eigenvalues ---    0.00237   0.00237   0.00237   0.00237   0.00238
     Eigenvalues ---    0.00238   0.00238   0.00239   0.00239   0.00239
     Eigenvalues ---    0.00240   0.00240   0.00242   0.00274   0.00315
     Eigenvalues ---    0.00485   0.00635   0.16000   0.16000   0.16000
     Eigenvalues ---    0.16000   0.16000   0.16000   0.16000   0.16000
     Eigenvalues ---    0.16000   0.16000   0.16000   0.16000   0.21712
     Eigenvalues ---    0.22000   0.22000   0.22278   0.22548   0.22639
     Eigenvalues ---    0.23071   0.23640   0.24128   0.24390   0.24639
     Eigenvalues ---    0.24768   0.26167   0.26328   0.26996   0.27524
     Eigenvalues ---    0.27566   0.27653   0.27773   0.27867   0.28137
     Eigenvalues ---    0.28291   0.28449   0.28465   0.28485   0.28505
     Eigenvalues ---    0.28512   0.28512   0.28524   0.28529   0.28531
     Eigenvalues ---    0.28542   0.28580   0.34723   0.34731   0.34744
     Eigenvalues ---    0.34744   0.34752   0.34798   0.34806   0.34809
     Eigenvalues ---    0.34833   0.34838   0.34846   0.34912
 RFO step:  Lambda=-2.77563876D-01 EMin= 2.31981873D-03
 Linear search not attempted -- first point.
 Maximum step size (   0.300) exceeded in Quadratic search.
    -- Step size scaled by   0.428
 Iteration  1 RMS(Cart)=  0.06744854 RMS(Int)=  0.00006889
 Iteration  2 RMS(Cart)=  0.00009898 RMS(Int)=  0.00002140
 Iteration  3 RMS(Cart)=  0.00000001 RMS(Int)=  0.00002140
 Variable       Old X    -DE/DX   Delta X   Delta X   Delta X     New X
                                 (Linear)    (Quad)   (Total)
    R1        2.91177  -0.07524   0.00000  -0.05717  -0.05720   2.85457
    R2        2.91044  -0.08935   0.00000  -0.06796  -0.06796   2.84248
    R3        2.90864  -0.06572   0.00000  -0.04977  -0.04981   2.85883
    R4        2.91044  -0.10773   0.00000  -0.08196  -0.08194   2.82850
    R5        2.05939  -0.00422   0.00000  -0.00289  -0.00289   2.05650
    R6        2.90920  -0.08295   0.00000  -0.06299  -0.06299   2.84622
    R7        2.06128  -0.00495   0.00000  -0.00339  -0.00339   2.05789
    R8        2.91053  -0.07677   0.00000  -0.05851  -0.05847   2.85206
    R9        2.05818  -0.00379   0.00000  -0.00259  -0.00259   2.05559
   R10        2.90840  -0.08695   0.00000  -0.06593  -0.06593   2.84247
   R11        2.91177  -0.08895   0.00000  -0.06768  -0.06768   2.84409
   R12        2.05986  -0.00450   0.00000  -0.00308  -0.00308   2.05678
   R13        2.91094  -0.06159   0.00000  -0.04647  -0.04648   2.86446
   R14        2.95528  -0.08560   0.00000  -0.06740  -0.06740   2.88788
   R15        2.91012  -0.10748   0.00000  -0.08175  -0.08173   2.82839
   R16        2.06004  -0.00442   0.00000  -0.00302  -0.00302   2.05701
   R17        2.95562  -0.08633   0.00000  -0.06795  -0.06795   2.88767
   R18        2.90996  -0.09062   0.00000  -0.06899  -0.06899   2.84097
   R19        2.06113  -0.00512   0.00000  -0.00350  -0.00350   2.05763
   R20        2.90982  -0.06275   0.00000  -0.04774  -0.04779   2.86204
   R21        2.91032  -0.07404   0.00000  -0.05619  -0.05621   2.85411
   R22        2.91032  -0.09092   0.00000  -0.06920  -0.06920   2.84112
   R23        2.90996  -0.07382   0.00000  -0.05600  -0.05602   2.85393
   R24        2.05926  -0.00437   0.00000  -0.00299  -0.00299   2.05627
   R25        2.91135  -0.07553   0.00000  -0.05738  -0.05740   2.85395
   R26        2.05992  -0.00446   0.00000  -0.00305  -0.00305   2.05687
   R27        2.90996  -0.10818   0.00000  -0.08228  -0.08226   2.82770
   R28        2.06092  -0.00474   0.00000  -0.00325  -0.00325   2.05768
   R29        2.90982  -0.07525   0.00000  -0.05734  -0.05729   2.85253
   R30        2.06080  -0.00470   0.00000  -0.00322  -0.00322   2.05758
   R31        2.91032  -0.10826   0.00000  -0.08236  -0.08234   2.82798
   R32        2.05947  -0.00422   0.00000  -0.00288  -0.00288   2.05659
   R33        2.06092  -0.00479   0.00000  -0.00327  -0.00327   2.05765
    A1        2.09444   0.00417   0.00000   0.00328   0.00332   2.09776
    A2        2.09421  -0.00438   0.00000  -0.00334  -0.00341   2.09080
    A3        2.09454   0.00021   0.00000   0.00006   0.00009   2.09463
    A4        2.09444   0.00035   0.00000   0.00024   0.00024   2.09468
    A5        2.09424  -0.00077   0.00000  -0.00070  -0.00070   2.09354
    A6        2.09451   0.00042   0.00000   0.00046   0.00046   2.09497
    A7        2.09468   0.00107   0.00000   0.00097   0.00096   2.09563
    A8        2.09360  -0.00042   0.00000  -0.00037  -0.00037   2.09323
    A9        2.09491  -0.00065   0.00000  -0.00060  -0.00059   2.09432
   A10        2.09390   0.00409   0.00000   0.00316   0.00323   2.09713
   A11        2.09474  -0.00247   0.00000  -0.00200  -0.00203   2.09271
   A12        2.09455  -0.00162   0.00000  -0.00116  -0.00120   2.09335
   A13        2.09420   0.00037   0.00000   0.00048   0.00047   2.09466
   A14        2.09486  -0.00024   0.00000  -0.00029  -0.00029   2.09458
   A15        2.09413  -0.00013   0.00000  -0.00019  -0.00018   2.09394
   A16        2.09389  -0.00269   0.00000  -0.00207  -0.00209   2.09180
   A17        2.06481   0.00541   0.00000   0.00478   0.00480   2.06961
   A18        2.05037  -0.00015   0.00000   0.00116   0.00112   2.05149
   A19        2.09516   0.00406   0.00000   0.00314   0.00320   2.09836
   A20        2.09466  -0.00167   0.00000  -0.00122  -0.00125   2.09341
   A21        2.09337  -0.00239   0.00000  -0.00192  -0.00195   2.09142
   A22        2.09486   0.00033   0.00000   0.00002   0.00002   2.09488
   A23        2.12859  -0.00119   0.00000  -0.00142  -0.00140   2.12720
   A24        2.04949   0.00122   0.00000   0.00195   0.00193   2.05142
   A25        2.07682   0.00125   0.00000   0.00140   0.00137   2.07819
   A26        2.11658  -0.00254   0.00000  -0.00257  -0.00256   2.11403
   A27        2.08978   0.00129   0.00000   0.00117   0.00119   2.09097
   A28        2.09422   0.00033   0.00000   0.00013   0.00015   2.09437
   A29        2.09452   0.00437   0.00000   0.00344   0.00349   2.09801
   A30        2.09444  -0.00470   0.00000  -0.00356  -0.00363   2.09081
   A31        2.09444   0.00105   0.00000   0.00076   0.00078   2.09522
   A32        2.09422  -0.00497   0.00000  -0.00380  -0.00387   2.09035
   A33        2.09452   0.00392   0.00000   0.00304   0.00310   2.09762
   A34        2.07696   0.00049   0.00000   0.00088   0.00085   2.07781
   A35        2.11599  -0.00171   0.00000  -0.00188  -0.00186   2.11413
   A36        2.09024   0.00123   0.00000   0.00100   0.00101   2.09125
   A37        2.09421   0.00072   0.00000   0.00053   0.00056   2.09477
   A38        2.09508  -0.00463   0.00000  -0.00357  -0.00364   2.09144
   A39        2.09389   0.00391   0.00000   0.00304   0.00308   2.09697
   A40        2.09359   0.00051   0.00000   0.00037   0.00037   2.09396
   A41        2.09534   0.00030   0.00000   0.00036   0.00036   2.09570
   A42        2.09426  -0.00081   0.00000  -0.00073  -0.00073   2.09353
   A43        2.09452   0.00039   0.00000   0.00026   0.00026   2.09478
   A44        2.09390  -0.00072   0.00000  -0.00065  -0.00064   2.09326
   A45        2.09476   0.00033   0.00000   0.00038   0.00039   2.09515
   A46        2.09422   0.00434   0.00000   0.00333   0.00340   2.09763
   A47        2.09418  -0.00258   0.00000  -0.00206  -0.00210   2.09208
   A48        2.09478  -0.00176   0.00000  -0.00127  -0.00130   2.09348
   A49        2.09444   0.00456   0.00000   0.00352   0.00359   2.09803
   A50        2.09442  -0.00181   0.00000  -0.00131  -0.00134   2.09308
   A51        2.09433  -0.00274   0.00000  -0.00221  -0.00225   2.09208
   A52        2.09452   0.00038   0.00000   0.00026   0.00025   2.09477
   A53        2.09476  -0.00082   0.00000  -0.00075  -0.00074   2.09402
   A54        2.09390   0.00044   0.00000   0.00049   0.00049   2.09439
    D1        3.14159   0.00066   0.00000   0.00095   0.00095  -3.14064
    D2       -0.00081   0.00045   0.00000   0.00065   0.00065  -0.00016
    D3        0.00062   0.00015   0.00000   0.00025   0.00026   0.00088
    D4        3.14141  -0.00005   0.00000  -0.00005  -0.00005   3.14136
    D5        3.14150  -0.00013   0.00000  -0.00012  -0.00013   3.14137
    D6        0.00095  -0.00045   0.00000  -0.00081  -0.00081   0.00014
    D7       -0.00072   0.00037   0.00000   0.00057   0.00057  -0.00015
    D8       -3.14127   0.00006   0.00000  -0.00011  -0.00012  -3.14139
    D9       -3.14159  -0.00047   0.00000  -0.00068  -0.00068   3.14091
   D10       -0.00044  -0.00019   0.00000  -0.00032  -0.00032  -0.00075
   D11        0.00062  -0.00097   0.00000  -0.00137  -0.00137  -0.00075
   D12       -3.14140  -0.00069   0.00000  -0.00101  -0.00101   3.14077
   D13       -0.00072  -0.00007   0.00000  -0.00012  -0.00012  -0.00084
   D14       -3.14145  -0.00008   0.00000  -0.00013  -0.00013  -3.14158
   D15       -3.14150   0.00013   0.00000   0.00019   0.00019  -3.14132
   D16        0.00095   0.00012   0.00000   0.00018   0.00018   0.00113
   D17        0.00019   0.00084   0.00000   0.00100   0.00100   0.00119
   D18       -2.72741  -0.00598   0.00000  -0.00959  -0.00959  -2.73700
   D19        3.14074   0.00115   0.00000   0.00169   0.00168  -3.14077
   D20        0.41314  -0.00567   0.00000  -0.00891  -0.00891   0.40423
   D21        0.00063   0.00003   0.00000   0.00004   0.00004   0.00067
   D22        3.14152   0.00010   0.00000   0.00014   0.00014  -3.14152
   D23        3.14136   0.00004   0.00000   0.00005   0.00005   3.14141
   D24       -0.00093   0.00011   0.00000   0.00015   0.00015  -0.00077
   D25       -0.00054   0.00083   0.00000   0.00096   0.00096   0.00042
   D26       -2.98488  -0.00201   0.00000  -0.00345  -0.00346  -2.98833
   D27       -3.14129   0.00074   0.00000   0.00103   0.00102  -3.14027
   D28        0.15755  -0.00210   0.00000  -0.00339  -0.00339   0.15416
   D29        0.00001   0.00038   0.00000   0.00061   0.00061   0.00061
   D30       -3.14115   0.00010   0.00000   0.00025   0.00025  -3.14091
   D31        3.14076   0.00047   0.00000   0.00054   0.00054   3.14130
   D32       -0.00040   0.00019   0.00000   0.00018   0.00018  -0.00022
   D33        0.00044  -0.00143   0.00000  -0.00177  -0.00176  -0.00132
   D34        2.99178   0.00106   0.00000   0.00216   0.00218   2.99395
   D35        2.73138   0.00662   0.00000   0.00959   0.00958   2.74096
   D36       -0.56047   0.00912   0.00000   0.01352   0.01352  -0.54695
   D37       -3.12179  -0.00155   0.00000  -0.00149  -0.00147  -3.12326
   D38        0.01988  -0.00124   0.00000  -0.00115  -0.00113   0.01874
   D39        0.42347  -0.00754   0.00000  -0.01102  -0.01102   0.41245
   D40       -2.71805  -0.00723   0.00000  -0.01068  -0.01069  -2.72874
   D41       -0.00044  -0.00006   0.00000  -0.00010  -0.00010  -0.00054
   D42        3.14054   0.00013   0.00000   0.00019   0.00020   3.14073
   D43       -3.14134  -0.00013   0.00000  -0.00021  -0.00021  -3.14154
   D44       -0.00036   0.00006   0.00000   0.00009   0.00009  -0.00027
   D45       -2.87176  -0.00460   0.00000  -0.00653  -0.00653  -2.87829
   D46        0.27008  -0.00401   0.00000  -0.00578  -0.00578   0.26429
   D47        0.42319  -0.00729   0.00000  -0.01068  -0.01069   0.41250
   D48       -2.71816  -0.00670   0.00000  -0.00993  -0.00994  -2.72809
   D49       -0.14083   0.00213   0.00000   0.00371   0.00372  -0.13711
   D50        3.00076   0.00226   0.00000   0.00383   0.00384   3.00460
   D51        3.00070   0.00182   0.00000   0.00338   0.00338   3.00408
   D52       -0.14090   0.00195   0.00000   0.00350   0.00350  -0.13739
   D53        0.00000  -0.00085   0.00000  -0.00111  -0.00111  -0.00111
   D54        3.14159  -0.00067   0.00000  -0.00091  -0.00091   3.14069
   D55        3.14159  -0.00098   0.00000  -0.00123  -0.00123   3.14036
   D56        0.00000  -0.00080   0.00000  -0.00103  -0.00102  -0.00102
   D57        3.14159   0.00048   0.00000   0.00066   0.00066  -3.14093
   D58        0.00000   0.00006   0.00000   0.00009   0.00009   0.00009
   D59        0.00000   0.00062   0.00000   0.00078   0.00078   0.00078
   D60        3.14159   0.00019   0.00000   0.00021   0.00021  -3.14138
   D61       -0.14082   0.00226   0.00000   0.00360   0.00360  -0.13722
   D62        3.00053   0.00168   0.00000   0.00286   0.00286   3.00339
   D63        3.00077   0.00208   0.00000   0.00339   0.00339   3.00416
   D64       -0.14106   0.00150   0.00000   0.00265   0.00265  -0.13841
   D65        0.00000   0.00057   0.00000   0.00075   0.00075   0.00075
   D66        3.14159   0.00014   0.00000   0.00018   0.00018  -3.14142
   D67        3.14159   0.00074   0.00000   0.00096   0.00096  -3.14063
   D68        0.00000   0.00032   0.00000   0.00038   0.00038   0.00038
   D69        0.00034   0.00015   0.00000   0.00024   0.00024   0.00059
   D70       -3.14063  -0.00005   0.00000  -0.00006  -0.00005  -3.14069
   D71        3.14150   0.00043   0.00000   0.00060   0.00061  -3.14108
   D72        0.00053   0.00023   0.00000   0.00031   0.00031   0.00083
   D73        0.00000  -0.00019   0.00000  -0.00027  -0.00027  -0.00027
   D74        3.14159  -0.00042   0.00000  -0.00060  -0.00060   3.14100
   D75        3.14159   0.00023   0.00000   0.00031   0.00031  -3.14129
   D76        0.00000   0.00000   0.00000  -0.00002  -0.00002  -0.00002
   D77        0.00000  -0.00005   0.00000  -0.00001  -0.00001  -0.00001
   D78        3.14159   0.00015   0.00000   0.00024   0.00024  -3.14135
   D79        3.14159   0.00019   0.00000   0.00032   0.00032  -3.14127
   D80        0.00000   0.00038   0.00000   0.00057   0.00057   0.00057
   D81        0.00000  -0.00014   0.00000  -0.00023  -0.00024  -0.00024
   D82        3.14159   0.00028   0.00000   0.00034   0.00034  -3.14125
   D83        3.14159  -0.00034   0.00000  -0.00048  -0.00049   3.14111
   D84        0.00000   0.00009   0.00000   0.00009   0.00009   0.00009
         Item               Value     Threshold  Converged?
 Maximum Force            0.108255     0.000450     NO 
 RMS     Force            0.030121     0.000300     NO 
 Maximum Displacement     0.238201     0.001800     NO 
 RMS     Displacement     0.067474     0.001200     NO 
 Predicted change in Energy=-1.059647D-01
 GradGradGradGradGradGradGradGradGradGradGradGradGradGradGradGradGradGrad

                          Input orientation:                          
 ---------------------------------------------------------------------
 Center     Atomic      Atomic             Coordinates (Angstroms)
 Number     Number       Type             X           Y           Z
 ---------------------------------------------------------------------
      1          6           0        0.733725    0.383367   -0.014780
      2          6           0       -0.591038   -0.342134    0.007372
      3          6           0        2.002075   -0.346999    0.332208
      4          6           0       -1.850578    0.388195   -0.339787
      5          6           0        2.099108    2.576837   -0.410345
      6          6           0        3.321503    0.378993    0.308958
      7          6           0       -1.801435    1.850111   -0.711556
      8          6           0        3.368121    1.847620   -0.063386
      9          6           0        4.601518   -0.436393    0.129776
     10          6           0        5.926273    0.274354    0.128842
     11          6           0        5.973434    1.788137    0.124564
     12          6           0        4.696097    2.581086    0.119802
     13          6           0        0.782107    1.848766   -0.387482
     14          6           0       -0.493743    2.577779   -0.736178
     15          6           0        7.212953   -0.516560    0.132003
     16          6           0        8.529229    0.195125    0.131921
     17          6           0        8.576276    1.703880    0.128336
     18          6           0        7.307092    2.496778    0.124831
     19          1           0       -0.628773   -1.396318    0.274894
     20          1           0        1.965763   -1.401891    0.600116
     21          1           0       -2.803549   -0.136040   -0.323230
     22          1           0        2.133061    3.631050   -0.678859
     23          1           0       -2.719564    2.377865   -0.963347
     24          1           0        4.567203   -1.517332    0.003313
     25          1           0        4.729294    3.661271    0.246805
     26          1           0       -0.461080    3.631893   -1.005434
     27          1           0        7.181712   -1.604985    0.134881
     28          1           0        9.455278   -0.377559    0.134768
     29          1           0        9.535950    2.217126    0.128062
     30          1           0        7.344989    3.584975    0.121929
 ---------------------------------------------------------------------
                    Distance matrix (angstroms):
                    1          2          3          4          5
     1  C    0.000000
     2  C    1.510576   0.000000
     3  C    1.504177   2.613385   0.000000
     4  C    2.604664   1.496777   3.979325   0.000000
     5  C    2.613820   3.991462   3.018215   4.516100   0.000000
     6  C    2.607954   3.989857   1.506153   5.212618   2.615753
     7  C    3.010626   2.605351   4.514800   1.509247   3.979082
     8  C    3.014372   4.524927   2.615134   5.425969   1.504172
     9  C    3.956353   5.194854   2.608845   6.521501   3.953902
    10  C    5.195678   6.547530   3.978287   7.791790   4.498816
    11  C    5.426541   6.902470   4.513714   7.961824   3.989810
    12  C    4.533043   6.042487   3.984539   6.919462   2.650552
    13  C    1.512826   2.615622   2.612980   3.011075   1.505026
    14  C    2.615824   3.014668   3.990600   2.606224   2.613244
    15  C    6.543073   7.806935   5.217478   9.120787   6.001221
    16  C    7.799156   9.136927   6.552690  10.392313   6.878449
    17  C    7.954234   9.393639   6.889687  10.519955   6.557891
    18  C    6.906168   8.393669   6.022730   9.408768   5.236022
    19  H    2.259997   1.088253   2.832969   2.248361   4.867941
    20  H    2.254587   2.830488   1.088986   4.318829   4.107200
    21  H    3.588486   2.246547   4.854701   1.087772   5.603868
    22  H    3.598136   4.865985   4.106615   5.147859   1.088401
    23  H    4.099147   3.587661   5.603322   2.258927   4.854379
    24  H    4.278847   5.290421   2.838614   6.703481   4.798419
    25  H    5.174713   6.662620   4.848840   7.372369   2.919883
    26  H    3.600261   4.103115   4.867032   3.591012   2.832285
    27  H    6.749258   7.875703   5.333864   9.261768   6.604375
    28  H    8.755962  10.047187   7.455880  11.341692   7.945995
    29  H    8.992343  10.446064   7.960884  11.541962   7.464977
    30  H    7.346958   8.855272   6.637120   9.746335   5.368326
                    6          7          8          9         10
     6  C    0.000000
     7  C    5.426797   0.000000
     8  C    1.515809   5.210032   0.000000
     9  C    1.528201   6.850820   2.602939   0.000000
    10  C    2.613085   7.931377   3.009362   1.503375   0.000000
    11  C    3.008725   7.819944   2.612761   2.613563   1.514524
    12  C    2.602787   6.591161   1.528087   3.018977   2.614274
    13  C    3.015592   2.603788   2.606244   4.480782   5.404425
    14  C    4.525823   1.496718   3.987452   5.983042   6.875364
    15  C    3.997087   9.357986   4.517771   2.612666   1.510331
    16  C    5.213977  10.496335   5.422722   3.978157   2.604163
    17  C    5.422230  10.412669   5.213664   4.514363   3.010990
    18  C    4.517060   9.169677   3.996539   3.990444   2.616457
    19  H    4.331001   3.589919   5.158752   5.319629   6.766173
    20  H    2.257068   5.146628   3.600856   2.846157   4.326377
    21  H    6.179092   2.258279   6.487829   7.424987   8.751147
    22  H    3.600562   4.318920   2.254950   4.826102   5.129156
    23  H    6.489125   1.088524   6.176649   7.919167   8.964827
    24  H    2.289374   7.239492   3.572834   1.088853   2.252325
    25  H    3.571986   6.844645   2.288742   4.101325   3.594146
    26  H    5.159159   2.248925   4.328264   6.593144   7.304651
    27  H    4.343695   9.661836   5.148133   2.832497   2.260106
    28  H    6.182710  11.506188   6.484148   4.854119   3.588719
    29  H    6.483116  11.374355   6.181852   5.602658   4.099284
    30  H    5.147983   9.346738   4.343757   4.868069   3.601808
                   11         12         13         14         15
    11  C    0.000000
    12  C    1.503457   0.000000
    13  C    5.216872   4.014094   0.000000
    14  C    6.571818   5.259958   1.510245   0.000000
    15  C    2.616885   3.991256   6.871711   8.349960   0.000000
    16  C    3.011615   4.515070   7.938653   9.372548   1.496355
    17  C    2.604207   3.978109   7.812562   9.152941   2.605575
    18  C    1.510237   2.612361   6.577068   7.848626   3.014816
    19  H    7.331609   6.648160   3.599985   4.102919   7.892214
    20  H    5.144304   4.852786   3.597661   4.865452   5.341904
    21  H    8.996578   7.988976   4.098842   3.587553  10.034059
    22  H    4.334776   2.882609   2.255330   2.830682   6.607985
    23  H    8.780635   7.497102   3.587933   2.246297  10.403479
    24  H    3.594206   4.102099   5.080383   6.552095   2.831625
    25  H    2.251990   1.088132   4.389508   5.424050   4.861688
    26  H    6.788174   5.382084   2.259849   1.088449   8.797398
    27  H    3.601849   4.868439   7.290831   8.784468   1.088877
    28  H    4.100436   5.603892   8.969569  10.415162   2.246631
    29  H    3.588253   4.853525   8.776744  10.073317   3.587390
    30  H    2.260486   2.832742   6.807742   7.949623   4.103672
                   16         17         18         19         20
    16  C    0.000000
    17  C    1.509493   0.000000
    18  C    2.606007   1.496504   0.000000
    19  H    9.296350   9.714197   8.840626   0.000000
    20  H    6.771170   7.318967   6.629880   2.614845   0.000000
    21  H   11.346747  11.536447  10.457416   2.583738   5.020088
    22  H    7.305745   6.773519   5.357527   5.814790   5.195600
    23  H   11.510834  11.368466  10.086233   4.488775   6.219587
    24  H    4.318182   5.144366   4.861567   5.204475   2.671514
    25  H    5.144597   4.317949   2.831249   7.368098   5.779061
    26  H    9.691780   9.310020   7.931613   5.191364   5.814322
    27  H    2.248600   3.590743   4.103690   7.814526   5.240593
    28  H    1.088826   2.259442   3.588400  10.136350   7.573549
    29  H    2.258758   1.088299   2.246335  10.788888   8.404037
    30  H    3.590767   2.248250   1.088861   9.403061   7.350753
                   21         22         23         24         25
    21  H    0.000000
    22  H    6.219931   0.000000
    23  H    2.595481   5.019897   0.000000
    24  H    7.506169   5.735524   8.318891   0.000000
[...]
 79,-0.00055437,-0.00020288,-0.00000366,-0.00002063,-0.00009668,0.00018
 536,-0.00005783,0.00072520,-0.00072084,0.00014811,0.00000742,0.0000271
 8,-0.00000051,0.00091236,0.00057479,0.00002738,0.00002134,0.00000559,-
 0.00000262,0.00022606,-0.00016230,0.00007512,0.00001317,0.00000379,0.0
 0000056,0.00785936,0.35257167,-0.00002369,-0.00006888,-0.00008492,-0.0
 0000885,0.00003552,0.00018709,0.00052839,-0.00044915,-0.00362813,-0.00
 000006,0.00001495,0.00000643,0.00010829,0.00018810,0.00010688,0.000334
 97,0.00397279,0.00382819,-0.00001649,-0.00000047,-0.00002362,-0.000913
 26,0.00052823,0.00508212,-0.00055725,0.03553303,-0.04087934,-0.0005253
 9,0.00030019,0.00465135,-0.00035059,0.00054396,0.00624432,-0.00004276,
 -0.00007005,-0.00010685,0.00002074,-0.00003769,-0.00018856,0.00000191,
 -0.00001781,0.00002094,0.00015131,-0.00076447,-0.00448078,0.00004025,0
 .00001941,-0.00007032,0.00003785,-0.00006075,-0.00023013,-0.00007631,0
 .00002201,0.00012263,-0.00000359,-0.00000174,0.00001926,-0.00014827,-0
 .00008200,0.00034408,-0.00000066,-0.00000446,-0.00002597,-0.00006808,0
 .00007515,0.00032658,-0.00000179,-0.00000090,0.00000176,0.00135570,-0.
 03963779,0.02922813,0.00024695,-0.00010528,0.00003985,-0.00004108,0.00
 008028,-0.00001347,0.00033615,-0.00137068,0.00018046,-0.00004504,-0.00
 006474,0.00000652,0.00152707,-0.00160341,0.00051612,-0.00460027,-0.000
 76167,-0.00050648,0.00005215,0.00000168,0.00000249,0.00137330,-0.03018
 767,0.00350657,-0.00077048,0.00002319,-0.00004303,-0.00435580,0.000985
 14,-0.00077303,0.00295280,0.02953986,-0.00371457,-0.06012379,-0.007184
 54,-0.00056659,0.00019617,0.00050197,-0.00004367,-0.00007666,-0.000007
 79,-0.00001544,0.00035607,0.00128537,-0.00014326,0.00020018,0.00015620
 ,0.00000787,0.00017346,-0.00046466,0.00007161,0.00146576,0.00172026,0.
 00015960,0.00001527,0.00002181,-0.00000335,-0.00034556,-0.00022720,-0.
 00001409,-0.00000128,0.00001087,-0.00000151,-0.00025865,0.00091235,-0.
 00014815,0.00000490,0.00000934,0.00000078,0.00017881,0.00000115,0.0001
 0111,0.06216254,-0.00005227,0.00017376,-0.00004812,0.00005637,0.000123
 39,-0.00000932,0.00071202,-0.00073608,0.00014840,-0.00012591,0.0000215
 6,-0.00001314,0.00174848,0.00077914,-0.00044184,-0.00250698,0.00145075
 ,0.00030460,-0.00003063,-0.00011804,0.00001357,0.00272123,-0.01257569,
 0.00222576,0.00002992,0.00047650,-0.00006995,0.00270587,0.00132366,0.0
 0077630,-0.00355369,-0.01390988,0.00205745,-0.00686770,-0.33068783,0.0
 3549124,-0.00032695,0.00021775,-0.00005783,0.00005803,-0.00009921,0.00
 003912,-0.00077646,-0.00074075,0.00005893,0.00010262,0.00017630,-0.000
 04456,0.00019755,0.00000578,0.00000281,-0.00173098,0.00084947,-0.00076
 885,0.00002013,-0.00001121,0.00000585,-0.00022722,-0.00014618,0.000045
 45,-0.00001296,0.00000387,-0.00000104,-0.00087920,0.00057479,-0.000081
 92,-0.00002083,0.00000602,-0.00000524,0.00000239,-0.00024908,-0.000149
 72,0.00747973,0.35259505,0.00003325,-0.00005122,-0.00018615,-0.0000104
 6,-0.00000787,0.00001898,-0.00007362,0.00002080,0.00011618,0.00001398,
 -0.00000926,-0.00002068,0.00010761,-0.00064692,-0.00362965,-0.00029402
 ,0.00041187,0.00513428,0.00000636,0.00001543,0.00000676,-0.00051228,0.
 00021287,0.00423575,-0.00004364,-0.00006982,-0.00010694,-0.00098272,0.
 00067188,0.00619037,0.00032469,0.00407940,0.00424209,-0.00060377,0.035
 47342,-0.04087014,0.00005736,-0.00000736,-0.00008747,-0.00002341,0.000
 03507,0.00018626,0.00010854,0.00018471,0.00011403,0.00001430,-0.000041
 44,-0.00023392,-0.00000949,-0.00003741,-0.00006643,0.00058125,-0.00055
 833,-0.00447992,-0.00000315,0.00000595,0.00002571,-0.00001426,0.000045
 50,0.00033349,0.00000139,0.00000041,0.00000180,0.00007057,0.00002755,0
 .00034404,0.00000446,-0.00000340,-0.00002579,0.00010097,-0.00015008,-0
 .00145282,0.00140142,-0.03961794,0.02922310,-0.00458067,0.00089358,-0.
 00064414,-0.00076002,0.00003728,-0.00004116,0.00039200,0.00138971,-0.0
 0015454,-0.00446272,-0.00129960,-0.00064735,0.00164063,0.00153929,0.00
 008141,0.00025953,0.00004937,0.00002067,0.00245577,-0.03148632,0.00370
 152,0.00017342,-0.00049151,0.00007544,-0.00004619,-0.00003876,0.000001
 58,-0.00001005,0.00002422,-0.00000255,0.00003355,-0.00002062,0.0000031
 2,-0.00007503,0.00002205,-0.00001156,0.00250542,0.02924302,-0.00364682
 ,-0.05982288,-0.00643662,-0.00056092,-0.00000112,-0.00001069,0.0000013
 4,-0.00001269,0.00002529,-0.00000352,0.00002402,0.00000296,0.00000129,
 -0.00001539,-0.00001151,0.00000190,0.00020983,0.00000448,0.00010335,-0
 .00033308,0.00023460,-0.00006702,-0.00000831,-0.00139553,0.00015368,-0
 .00024125,-0.00089986,0.00007551,0.00102574,0.00046024,0.00034679,0.00
 001306,-0.00002157,0.00000181,-0.00002403,-0.00000548,-0.00000198,0.06
 165852,0.00258190,0.00121425,0.00051826,0.00019571,0.00065371,-0.00008
 753,-0.00076625,-0.00071755,0.00005817,-0.00283015,0.00126134,0.000735
 62,-0.00160983,0.00080385,-0.00053362,0.00002345,0.00016667,-0.0000405
 6,0.00385995,-0.01167692,0.00224544,0.00038521,0.00030278,-0.00002310,
 -0.00005037,0.00011483,-0.00001642,0.00010190,0.00001277,0.00000266,0.
 00007714,-0.00003428,0.00001178,-0.00009152,-0.00014129,0.00002017,-0.
 00354318,-0.01323713,0.00185850,-0.00742386,-0.33374760,0.03566542,-0.
 00003339,0.00005289,-0.00000872,0.00005765,0.00001737,0.00000072,0.000
 01520,-0.00005390,0.00000714,-0.00003890,-0.00004163,-0.00000015,0.000
 00190,-0.00017507,-0.00016000,0.00021865,-0.00015508,0.00006813,0.0001
 1689,-0.00069318,0.00012416,0.00093329,0.00056992,0.00002662,-0.000392
 66,0.00092819,-0.00081578,-0.00002325,-0.00000967,0.00000301,0.0000143
 6,0.00002693,-0.00000006,0.00819665,0.35455278,-0.00085027,0.00041496,
 0.00406459,-0.00006029,-0.00009682,-0.00015326,0.00010870,0.00018990,0
 .00012553,-0.00046126,0.00083032,0.00857883,0.00046560,-0.00034140,-0.
 00269103,0.00002391,-0.00003897,-0.00017106,-0.00061287,0.00008242,0.0
 0473394,-0.00003164,-0.00007668,-0.00007203,0.00000297,-0.00001572,0.0
 0000752,-0.00001204,-0.00000209,-0.00001697,-0.00000884,0.00000580,0.0
 0002238,0.00000238,0.00002710,0.00006643,0.00035523,0.00386564,0.00331
 365,-0.00044018,0.03572479,-0.04221175,0.00000411,-0.00000733,-0.00000
 060,-0.00000747,-0.00000125,-0.00000579,-0.00000021,0.00000639,-0.0000
 0383,0.00000525,0.00000153,-0.00002323,0.00010360,-0.00015996,-0.00146
 150,-0.00006496,0.00006923,0.00028130,-0.00003089,0.00003140,0.0002601
 0,-0.00014822,-0.00008553,0.00032175,0.00045108,-0.00076400,-0.0054381
 6,0.00000201,0.00000312,0.00002637,-0.00000441,-0.00000128,0.00001915,
 0.00121249,-0.03966268,0.03041158,0.00003354,-0.00002062,0.00000314,-0
 .00001539,-0.00001151,0.00000188,-0.00007503,0.00002206,-0.00001153,0.
 00002401,0.00000296,0.00000130,-0.00004619,-0.00003877,0.00000159,0.00
 017341,-0.00049151,0.00007554,-0.00001269,0.00002529,-0.00000353,0.000
 25953,0.00004937,0.00002065,0.00164075,0.00153913,0.00008057,0.0025058
 0,0.02924269,-0.00364774,-0.00458077,0.00089367,-0.00064325,0.00039197
 ,0.00138972,-0.00015442,-0.00001004,0.00002422,-0.00000258,-0.00000112
 ,-0.00001069,0.00000134,-0.05982329,-0.00643431,-0.00055604,0.00245566
 ,-0.03148667,0.00370274,-0.00446314,-0.00129931,-0.00064474,-0.0007600
 3,0.00003735,-0.00004115,-0.00000099,0.00000010,-0.00000046,-0.0000240
 3,-0.00000548,-0.00000197,0.00000179,-0.00000090,-0.00000013,0.0000130
 6,-0.00002157,0.00000180,0.00000207,-0.00000251,0.00000031,-0.00024127
 ,-0.00089985,0.00007573,-0.00033308,0.00023463,-0.00006688,-0.00000093
 ,-0.00000136,-0.00000004,0.06165895,0.00007715,-0.00003428,0.00001178,
 -0.00003890,-0.00004163,-0.00000015,-0.00009153,-0.00014130,0.00002018
 ,0.00001520,-0.00005390,0.00000715,-0.00005037,0.00011482,-0.00001644,
 0.00038525,0.00030277,-0.00002317,0.00005765,0.00001738,0.00000073,0.0
 0002345,0.00016667,-0.00004058,-0.00160986,0.00080381,-0.00053376,-0.0
 0354342,-0.01323694,0.00185966,0.00258197,0.00121434,0.00051864,-0.000
 76623,-0.00071756,0.00005818,0.00010190,0.00001277,0.00000265,-0.00003
 339,0.00005290,-0.00000870,-0.00742204,-0.33374277,0.03568893,0.003859
 85,-0.01167641,0.00224495,-0.00282983,0.00126137,0.00073713,0.00019569
 ,0.00065358,-0.00008770,0.00000058,0.00001470,-0.00000099,0.00001437,0
 .00002693,-0.00000007,0.00001406,0.00000403,0.00000107,-0.00002325,-0.
 00000967,0.00000301,0.00001023,-0.00000216,0.00000112,0.00093329,0.000
 56995,0.00002647,0.00021864,-0.00015510,0.00006817,-0.00000136,-0.0000
 1155,0.00000163,0.00819496,0.35454728,-0.00000877,0.00000581,0.0000223
 8,0.00000522,0.00000152,-0.00002323,0.00000228,0.00002709,0.00006642,-
 0.00000019,0.00000639,-0.00000383,0.00000300,-0.00001572,0.00000753,-0
 .00003154,-0.00007672,-0.00007198,-0.00000748,-0.00000124,-0.00000580,
 0.00002377,-0.00003898,-0.00017106,0.00046546,-0.00034120,-0.00269120,
 0.00035608,0.00386038,0.00331391,-0.00084943,0.00041527,0.00406471,0.0
 0010891,0.00018987,0.00012558,-0.00001205,-0.00000208,-0.00001697,0.00
 000411,-0.00000732,-0.00000060,-0.00043597,0.03574832,-0.04221656,-0.0
 0061387,0.00008931,0.00473308,-0.00045760,0.00082966,0.00857896,-0.000
 06040,-0.00009773,-0.00015312,-0.00000052,-0.00000102,0.00000639,-0.00
 000439,-0.00000126,0.00001916,-0.00000196,0.00000016,0.00000563,0.0000
 0201,0.00000312,0.00002637,-0.00000124,0.00000035,0.00000183,-0.000148
 27,-0.00008528,0.00032174,-0.00006502,0.00006909,0.00028130,-0.0000000
 4,0.00000163,0.00000224,0.00120575,-0.03968767,0.03041675,-0.00011211,
 -0.00000816,-0.00001413,0.00003169,0.00005441,-0.00000598,0.00002661,0
 .00016800,-0.00001502,-0.00004340,0.00002629,-0.00000449,0.00008821,-0
 .00004858,0.00000823,-0.00046845,-0.00028669,0.00007520,-0.00002604,-0
 .00003955,0.00000286,-0.00007702,-0.00007638,-0.00000607,-0.00046710,0
 .00123925,-0.00020147,-0.00190900,-0.00425097,-0.00017689,0.00008476,-
 0.00047774,0.00007016,0.00026912,0.00004398,0.00005576,-0.00004946,-0.
 00003671,0.00000184,0.00003276,-0.00003706,0.00000804,-0.02047533,0.01
 774480,-0.00368916,-0.26751113,0.12039813,-0.02868459,0.00414973,-0.00
 470499,0.00064814,0.00128738,-0.00091481,-0.00005140,0.00000112,-0.000
 01398,0.00000142,0.00000490,-0.00002083,0.00000446,-0.00001377,-0.0000
 0241,-0.00000042,-0.00000116,0.00001317,-0.00000178,-0.00001239,0.0000
 0408,-0.00000156,-0.00000601,-0.00007568,-0.00001092,-0.00002115,0.000
 04456,-0.00000959,0.00000207,0.00001023,-0.00000124,0.00102587,-0.0003
 9276,0.00044985,0.28334813,-0.00006908,0.00004931,0.00000639,0.0000264
 3,-0.00000550,0.00000485,0.00006214,0.00005843,-0.00001120,-0.00000625
 ,0.00003322,-0.00000723,0.00010290,0.00002723,0.00000917,-0.00029928,-
 0.00007529,-0.00014703,-0.00001314,-0.00002596,0.00000314,-0.00012747,
 -0.00012279,0.00002863,-0.00020839,0.00067412,-0.00005153,-0.00303763,
 -0.00147836,0.00115524,-0.00099529,-0.00018726,-0.00005142,0.00030982,
 0.00013388,-0.00008681,-0.00005416,-0.00005562,0.00000270,0.00003164,0
 .00000891,-0.00000219,-0.01748400,0.01118107,-0.00188796,0.12161879,-0
 .13072952,0.01869388,0.02971178,-0.01179287,0.00361315,-0.00207298,-0.
 00522709,0.00099484,0.00000097,0.00000450,0.00000021,0.00000934,0.0000
 0602,-0.00000340,0.00000303,0.00000212,-0.00000032,-0.00001066,0.00000
 379,-0.00000090,0.00000408,-0.00000193,0.00000109,0.00002011,0.0000066
 2,0.00004005,-0.00005933,0.00004956,-0.00000397,-0.00000251,-0.0000021
 6,0.00000035,0.00046004,0.00092815,-0.00076394,-0.12876739,0.13625466,
 -0.00000683,0.00001026,0.00013452,-0.00000249,0.00000657,0.00002004,-0
 .00000177,-0.00000470,-0.00006389,-0.00000051,-0.00000514,-0.00002228,
 -0.00001004,-0.00000017,0.00005008,0.00007672,-0.00014597,-0.00110660,
 -0.00000045,0.00000146,0.00000611,-0.00000036,0.00003157,0.00017154,-0
 .00002393,0.00003673,0.00035018,-0.00032619,0.00108187,0.00934876,0.00
 013258,-0.00001961,-0.00010108,0.00002393,-0.00010316,-0.00071768,0.00
 000378,0.00000369,-0.00000657,-0.00000025,-0.00000643,-0.00002409,0.00
 061554,0.00026154,0.00446441,-0.02883739,0.01862071,-0.04245441,-0.003
 55297,0.00151146,0.00253764,0.00008988,0.00106550,0.00383792,-0.000000
 40,-0.00000070,0.00000583,0.00000078,-0.00000525,-0.00002578,-0.000001
 10,-0.00000065,-0.00000199,0.00000112,0.00000057,0.00000176,-0.0000015
 6,0.00000109,0.00000472,-0.00002267,0.00003426,0.00031901,0.00000310,0
 .00000239,0.00004660,0.00000031,0.00000114,0.00000183,0.00034556,-0.00
 081631,-0.00543809,0.03142670,-0.02131224,0.03060025,-0.00004493,0.000
 03558,-0.00000670,0.00003303,0.00003672,-0.00000094,0.00008535,0.00004
 616,-0.00000353,-0.00002340,0.00003897,-0.00000659,0.00001510,-0.00016
 459,0.00002494,-0.00006704,0.00006987,-0.00002332,-0.00004423,-0.00002
 269,0.00000147,-0.00043723,0.00031562,0.00000381,0.00025166,-0.0000349
 5,0.00006433,0.00015881,0.00046426,-0.00004007,-0.00154690,0.00408585,
 -0.00117457,-0.00051704,-0.00119203,0.00009219,-0.00010798,0.00001242,
 -0.00001645,0.00002751,-0.00005599,0.00000723,0.00142015,0.00053830,-0
 .00022133,0.00284116,0.00395977,-0.00048917,-0.27960805,-0.11651092,-0
 .00051717,-0.02042614,-0.01651821,0.00049697,0.00000167,-0.00001043,0.
 00000126,-0.00000128,-0.00001296,0.00000140,-0.00001279,-0.00000380,-0
 .00000062,0.00000551,0.00002134,-0.00000064,-0.00001378,0.00000303,-0.
 00000109,-0.00002027,-0.00004203,0.00000104,-0.00000341,0.00007119,-0.
 00002876,0.00000179,0.00001406,-0.00000196,-0.00000829,0.00011685,-0.0
 0003115,0.00078661,-0.00050786,0.00024702,0.29622716,0.00005302,-0.000
 05880,0.00000965,-0.00003198,0.00000874,-0.00000605,-0.00010532,0.0000
 2925,-0.00000382,0.00001256,-0.00002781,0.00000493,-0.00005870,0.00006
 650,-0.00001954,0.00012091,-0.00012980,0.00004463,0.00000986,0.0000337
 9,-0.00000631,0.00032822,-0.00009716,-0.00010592,-0.00030078,0.0001461
 6,-0.00012551,0.00098181,-0.00023922,0.00007556,0.00287257,-0.00173180
 ,0.00154658,0.00025571,0.00070909,-0.00002755,0.00007334,0.00004640,0.
 00001545,-0.00002800,-0.00000257,0.00000116,0.00169649,-0.00531997,0.0
 0123625,-0.03045703,-0.01087735,-0.00017343,-0.11773187,-0.12226202,0.
 00303905,0.01871087,0.01114678,0.00032613,0.00000231,-0.00000188,0.000
 00061,0.00001087,0.00000387,0.00000041,-0.00000380,-0.00000165,0.00000
 057,-0.00000882,0.00000559,-0.00000446,-0.00000241,0.00000212,-0.00000
 065,0.00006186,0.00004894,0.00000349,-0.00002461,0.00000479,0.00003753
 ,-0.00000090,0.00000403,0.00000016,-0.00139560,-0.00069308,0.00003218,
 0.00056588,0.00101986,-0.00036324,0.12475823,0.12724001,-0.00000871,0.
 00000853,-0.00000792,0.00000738,-0.00000188,-0.00002418,0.00001479,0.0
 0000541,0.00005092,-0.00000331,0.00000652,0.00000531,0.00001196,-0.000
 02600,-0.00006046,-0.00002926,0.00004147,0.00016857,-0.00000250,-0.000
 00826,-0.00002201,0.00000229,-0.00010665,-0.00111594,0.00009636,-0.000
 10940,-0.00071251,-0.00010257,0.00004385,-0.00012316,-0.00102533,0.001
 62131,0.00924019,-0.00008456,-0.00011595,0.00036512,-0.00002384,0.0000
 1176,0.00013329,0.00000380,-0.00000053,0.00002129,-0.00036264,0.001165
 85,0.00379802,0.00371185,0.00192920,0.00293046,-0.00036757,0.00311333,
 -0.03882355,-0.00380480,-0.00182564,0.00444941,-0.00000030,-0.00000017
 ,0.00000195,-0.00000151,-0.00000104,0.00000180,-0.00000062,0.00000057,
 0.00000484,0.00000303,-0.00000261,-0.00002597,-0.00000042,-0.00000032,
 -0.00000199,-0.00001165,-0.00000281,0.00004634,-0.00001707,0.00004338,
 0.00031825,-0.00000014,0.00000107,0.00000563,0.00015354,0.00012426,0.0
 0025996,0.00011558,-0.00042889,-0.00217987,0.00127940,-0.00472400,0.02
 673477,-0.00001638,-0.00002273,0.00000280,0.00000126,0.00001336,-0.000
 00145,-0.00004129,0.00004598,-0.00000849,-0.00001683,-0.00002373,0.000
 00220,-0.00007179,-0.00002775,-0.00000527,0.00025593,-0.00004729,0.000
 03230,0.00002291,-0.00000647,0.00000238,0.00017934,0.00050174,-0.00004
 548,0.00035767,-0.00144106,0.00018927,-0.00474892,-0.00072663,-0.00045
 570,0.00116056,-0.03001406,0.00350569,0.00164555,-0.00151484,0.0004541
 4,0.00003051,0.00001744,-0.00000172,-0.00001289,0.00001021,-0.00000060
 ,-0.00076862,0.00002571,-0.00004022,-0.00424893,0.00138167,-0.00096041
 ,0.00381860,0.03068452,-0.00380478,-0.05984296,-0.00781936,-0.00039049
 ,-0.00000082,0.00000076,-0.00000029,0.00001527,0.00002013,-0.00000316,
 0.00000167,0.00000231,-0.00000030,-0.00002438,0.00000742,-0.00000357,0
 .00000112,0.00000097,-0.00000040,-0.00035609,-0.00023433,-0.00001115,-
 0.00024131,0.00093254,-0.00014813,-0.00000099,0.00000058,-0.00000052,0
 .00020986,0.00000188,0.00010342,0.00005457,0.00135435,-0.00017811,0.00
 102724,-0.00036467,0.00044681,0.06161014,-0.00010042,0.00001720,-0.000
 01024,0.00003606,0.00005123,-0.00000426,0.00005759,0.00011140,-0.00000
 944,-0.00005608,0.00002026,-0.00000660,0.00008583,-0.00014356,0.000031
 24,-0.00002136,0.00016918,-0.00004366,-0.00001870,-0.00005313,0.000004
 98,-0.00037502,0.00029864,-0.00006909,0.00071487,-0.00069354,0.0001458
 9,-0.00241496,0.00133184,0.00019866,0.00277223,-0.01229558,0.00212995,
 0.00163436,0.00080046,-0.00033493,-0.00008033,-0.00003215,0.00000191,0
 .00003760,-0.00004338,0.00000474,-0.00013274,0.00065964,-0.00010846,0.
 00291218,0.00111171,0.00110595,-0.00466182,-0.01263049,0.00184103,-0.0
 0683210,-0.33373199,0.03571634,0.00000076,-0.00001162,0.00000176,0.000
 02181,-0.00001121,0.00000595,-0.00001043,-0.00000188,-0.00000017,-0.00
 001242,0.00002718,-0.00000172,-0.00001398,0.00000450,-0.00000070,-0.00
 021835,-0.00013899,0.00003950,-0.00090062,0.00056998,-0.00008551,0.000
 00010,0.00001470,-0.00000102,0.00000443,-0.00017509,-0.00015997,-0.000
 15808,-0.00073710,0.00011276,0.00048825,0.00092719,-0.00076237,0.00724
 134,0.35458462,0.00001229,-0.00000552,-0.00001507,-0.00000423,-0.00000
 565,-0.00000132,-0.00000993,-0.00001015,0.00000605,0.00000616,-0.00000
 461,-0.00000455,-0.00001914,0.00002432,0.00006546,0.00002911,-0.000045
 24,-0.00016996,0.00000388,0.00000573,-0.00000350,0.00006161,-0.0000155
 0,-0.00007377,-0.00007425,0.00001412,0.00013583,-0.00024922,0.00030142
 ,0.00411527,-0.00049656,0.00012879,0.00371760,0.00006948,-0.00052724,-
 0.00269266,0.00001024,0.00000789,0.00002329,-0.00000396,0.00000306,-0.
 00002398,-0.00002152,-0.00009908,-0.00015059,-0.00114715,0.00101252,0.
 00851448,0.00051174,0.00399951,0.00432437,-0.00051228,0.03565496,-0.04
 220885,-0.00000029,0.00000176,0.00000221,-0.00000336,0.00000585,0.0000
 2571,0.00000126,0.00000061,0.00000195,-0.00000115,-0.00000051,0.000019
 26,0.00000142,0.00000021,0.00000583,-0.00001303,0.00003855,0.00028821,
 0.00007567,0.00002641,0.00032178,-0.00000046,-0.00000099,0.00000639,0.
 00010299,-0.00016017,-0.00146150,0.00000648,0.00020533,0.00024115,0.00
 034298,-0.00081386,-0.00543854,0.00132123,-0.03974254,0.03042945\\0.00
 001338,-0.00000484,-0.00000874,0.00000885,-0.00000889,0.00000462,0.000
 00125,0.00000659,0.00000561,-0.00001672,-0.00000074,-0.00001033,-0.000
 00519,-0.00000713,-0.00001128,0.00001299,-0.00000815,-0.00001519,-0.00
 001678,0.00000147,-0.00000335,0.00000532,0.00000160,0.00000186,-0.0000
 0772,0.00000976,-0.00001281,-0.00001328,-0.00000260,0.00000685,-0.0000
 1659,0.00000572,0.00000202,-0.00000099,-0.00001070,0.00001180,0.000009
 55,0.00000890,0.00001556,0.00001038,0.00000757,0.00000037,-0.00001743,
 -0.00001040,0.00000669,0.00002289,-0.00000022,-0.00001766,0.00001710,-
 0.00000114,0.00001316,-0.00001292,0.00001082,-0.00001433,0.00000224,-0
 .00000147,-0.00000189,0.00000146,0.00000001,0.00000770,-0.00000155,0.0
 0000134,0.00000681,0.00000119,0.00000092,0.00000092,-0.00000090,-0.000
 00088,-0.00000223,0.00000021,0.00000015,0.00000522,0.00000078,0.000000
 73,0.00000063,0.00000153,0.00000150,0.00000281,-0.00000032,-0.00000087
 ,0.00000253,0.00000078,-0.00000011,0.00000057,0.00000103,0.00000052,0.
 00000375,-0.00000056,0.00000054,-0.00000164\\\@


 K N O W I N G  IS A BARRIER WHICH PREVENTS LEARNING

                     -- TEACHING OF THE BENE GESSERIT
 Job cpu time:       0 days  0 hours 22 minutes 14.2 seconds.
 Elapsed time:       0 days  0 hours  5 minutes 33.5 seconds.
 File lengths (MBytes):  RWF=    153 Int=      0 D2E=      0 Chk=      5 Scr=      1
 Normal termination of Gaussian 16 at Sun Jun 21 16:42:05 2020.
