 Entering Gaussian System, Link 0=g16
 Input=C3H6_opt.gjf
 Output=C3H6_opt.log
 Initial command:
 /home/qingchun/software/g16A_modified_by_qingchun/g16/l1.exe "/scratch/qingchun/gaussian/Gau-29476.inp" -scrdir="/scratch/qingchun/gaussian/"
 Entering Link 1 = /home/qingchun/software/g16A_modified_by_qingchun/g16/l1.exe PID=     29477.
  
 Copyright (c) 1988,1990,1992,1993,1995,1998,2003,2009,2016,
            Gaussian, Inc.  All Rights Reserved.
  
 This is part of the Gaussian(R) 16 program.  It is based on
 the Gaussian(R) 09 system (copyright 2009, Gaussian, Inc.),
 the Gaussian(R) 03 system (copyright 2003, Gaussian, Inc.),
 the Gaussian(R) 98 system (copyright 1998, Gaussian, Inc.),
 the Gaussian(R) 94 system (copyright 1995, Gaussian, Inc.),
 the Gaussian 92(TM) system (copyright 1992, Gaussian, Inc.),
 the Gaussian 90(TM) system (copyright 1990, Gaussian, Inc.),
 the Gaussian 88(TM) system (copyright 1988, Gaussian, Inc.),
 the Gaussian 86(TM) system (copyright 1986, Carnegie Mellon
 University), and the Gaussian 82(TM) system (copyright 1983,
 Carnegie Mellon University). Gaussian is a federally registered
 trademark of Gaussian, Inc.
  
 This software contains proprietary and confidential information,
 including trade secrets, belonging to Gaussian, Inc.
  
 This software is provided under written license and may be
 used, copied, transmitted, or stored only in accord with that
 written license.
  
 The following legend is applicable only to US Government
 contracts under FAR:
  
                    RESTRICTED RIGHTS LEGEND
  
 Use, reproduction and disclosure by the US Government is
 subject to restrictions as set forth in subparagraphs (a)
 and (c) of the Commercial Computer Software - Restricted
 Rights clause in FAR 52.227-19.
  
 Gaussian, Inc.
 340 Quinnipiac St., Bldg. 40, Wallingford CT 06492
  
  
 ---------------------------------------------------------------
 Warning -- This program may not be used in any manner that
 competes with the business of Gaussian, Inc. or will provide
 assistance to any competitor of Gaussian, Inc.  The licensee
 of this program is prohibited from giving any competitor of
 Gaussian, Inc. access to this program.  By using this program,
 the user acknowledges that Gaussian, Inc. is engaged in the
 business of creating and licensing software in the field of
 computational chemistry and represents and warrants to the
 licensee that it is not a competitor of Gaussian, Inc. and that
 it will not use this program in any manner prohibited above.
 ---------------------------------------------------------------
  

 Cite this work as:
 Gaussian 16, Revision A.03,
 M. J. Frisch, G. W. Trucks, H. B. Schlegel, G. E. Scuseria, 
 M. A. Robb, J. R. Cheeseman, G. Scalmani, V. Barone, 
 G. A. Petersson, H. Nakatsuji, X. Li, M. Caricato, A. V. Marenich, 
 J. Bloino, B. G. Janesko, R. Gomperts, B. Mennucci, H. P. Hratchian, 
 J. V. Ortiz, A. F. Izmaylov, J. L. Sonnenberg, D. Williams-Young, 
 F. Ding, F. Lipparini, F. Egidi, J. Goings, B. Peng, A. Petrone, 
 T. Henderson, D. Ranasinghe, V. G. Zakrzewski, J. Gao, N. Rega, 
 G. Zheng, W. Liang, M. Hada, M. Ehara, K. Toyota, R. Fukuda, 
 J. Hasegawa, M. Ishida, T. Nakajima, Y. Honda, O. Kitao, H. Nakai, 
 T. Vreven, K. Throssell, J. A. Montgomery, Jr., J. E. Peralta, 
 F. Ogliaro, M. J. Bearpark, J. J. Heyd, E. N. Brothers, K. N. Kudin, 
 V. N. Staroverov, T. A. Keith, R. Kobayashi, J. Normand, 
 K. Raghavachari, A. P. Rendell, J. C. Burant, S. S. Iyengar, 
 J. Tomasi, M. Cossi, J. M. Millam, M. Klene, C. Adamo, R. Cammi, 
 J. W. Ochterski, R. L. Martin, K. Morokuma, O. Farkas, 
 J. B. Foresman, and D. J. Fox, Gaussian, Inc., Wallingford CT, 2016.
 
 ******************************************
 Gaussian 16:  ES64L-G16RevA.03 25-Dec-2016
                18-Jun-2020 
 ******************************************
 %nprocshared=4
 Will use up to    4 processors via shared memory.
 %mem=30GB
 %chk=C3H6_opt.chk
 ------------------------
 # opt freq b3lyp/cc-pVDZ
 ------------------------
 1/18=20,19=15,26=3,38=1/1,3;
 2/9=110,12=2,17=6,18=5,40=1/2;
 3/5=16,11=2,25=1,30=1,71=1,74=-5/1,2,3;
 4//1;
 5/5=2,38=5/2;
 6/7=2,8=2,9=2,10=2,28=1/1;
 7//1,2,3,16;
 1/18=20,19=15,26=3/3(2);
 2/9=110/2;
 99//99;
 2/9=110/2;
 3/5=16,11=2,25=1,30=1,71=1,74=-5/1,2,3;
 4/5=5,16=3,69=1/1;
 5/5=2,38=5/2;
 7//1,2,3,16;
 1/18=20,19=15,26=3/3(-5);
 2/9=110/2;
 6/7=2,8=2,9=2,10=2,19=2,28=1/1;
 99/9=1/99;
 -------------------
 Title Card Required
 -------------------
 Symbolic Z-matrix:
 Charge =  0 Multiplicity = 1
 C                    -2.1017   -1.05085   0. 
 C                    -0.60058  -1.05085   0. 
 C                    -1.35117   0.24913   0. 
 H                    -2.63829  -1.36072  -0.91386 
 H                    -2.63829  -1.36072   0.91386 
 H                    -0.06402  -1.36061  -0.91389 
 H                    -0.06402  -1.36061   0.91389 
 H                    -1.35139   0.86866   0.91394 
 H                    -1.35139   0.86866  -0.91394 
 

 GradGradGradGradGradGradGradGradGradGradGradGradGradGradGradGradGradGrad
 Berny optimization.
 Initialization pass.
                           ----------------------------
                           !    Initial Parameters    !
                           ! (Angstroms and Degrees)  !
 --------------------------                            --------------------------
 ! Name  Definition              Value          Derivative Info.                !
 --------------------------------------------------------------------------------
 ! R1    R(1,2)                  1.5011         estimate D2E/DX2                !
 ! R2    R(1,3)                  1.5011         estimate D2E/DX2                !
 ! R3    R(1,4)                  1.1041         estimate D2E/DX2                !
 ! R4    R(1,5)                  1.1041         estimate D2E/DX2                !
 ! R5    R(2,3)                  1.5011         estimate D2E/DX2                !
 ! R6    R(2,6)                  1.1041         estimate D2E/DX2                !
 ! R7    R(2,7)                  1.1041         estimate D2E/DX2                !
 ! R8    R(3,8)                  1.1041         estimate D2E/DX2                !
 ! R9    R(3,9)                  1.1041         estimate D2E/DX2                !
 ! A1    A(2,1,4)              119.0775         estimate D2E/DX2                !
 ! A2    A(2,1,5)              119.0775         estimate D2E/DX2                !
 ! A3    A(3,1,4)              119.081          estimate D2E/DX2                !
 ! A4    A(3,1,5)              119.081          estimate D2E/DX2                !
 ! A5    A(4,1,5)              111.7214         estimate D2E/DX2                !
 ! A6    A(1,2,6)              119.076          estimate D2E/DX2                !
 ! A7    A(1,2,7)              119.076          estimate D2E/DX2                !
 ! A8    A(3,2,6)              119.0756         estimate D2E/DX2                !
 ! A9    A(3,2,7)              119.0756         estimate D2E/DX2                !
 ! A10   A(6,2,7)              111.7304         estimate D2E/DX2                !
 ! A11   A(1,3,8)              119.0667         estimate D2E/DX2                !
 ! A12   A(1,3,9)              119.0667         estimate D2E/DX2                !
 ! A13   A(2,3,8)              119.0793         estimate D2E/DX2                !
 ! A14   A(2,3,9)              119.0793         estimate D2E/DX2                !
 ! A15   A(8,3,9)              111.7363         estimate D2E/DX2                !
 ! D1    D(4,1,2,6)              0.0066         estimate D2E/DX2                !
 ! D2    D(4,1,2,7)           -142.5447         estimate D2E/DX2                !
 ! D3    D(5,1,2,6)            142.5447         estimate D2E/DX2                !
 ! D4    D(5,1,2,7)             -0.0066         estimate D2E/DX2                !
 ! D5    D(4,1,3,8)            142.541          estimate D2E/DX2                !
 ! D6    D(4,1,3,9)              0.0086         estimate D2E/DX2                !
 ! D7    D(5,1,3,8)             -0.0086         estimate D2E/DX2                !
 ! D8    D(5,1,3,9)           -142.541          estimate D2E/DX2                !
 ! D9    D(6,2,3,8)           -142.562          estimate D2E/DX2                !
 ! D10   D(6,2,3,9)              0.012          estimate D2E/DX2                !
 ! D11   D(7,2,3,8)             -0.012          estimate D2E/DX2                !
 ! D12   D(7,2,3,9)            142.562          estimate D2E/DX2                !
 --------------------------------------------------------------------------------
 Trust Radius=3.00D-01 FncErr=1.00D-07 GrdErr=1.00D-06 EigMax=2.50D+02 EigMin=1.00D-04
 Number of steps in this run=     46 maximum allowed number of steps=    100.
 GradGradGradGradGradGradGradGradGradGradGradGradGradGradGradGradGradGrad

                          Input orientation:                          
 ---------------------------------------------------------------------
 Center     Atomic      Atomic             Coordinates (Angstroms)
 Number     Number       Type             X           Y           Z
 ---------------------------------------------------------------------
      1          6           0       -2.101695   -1.050847    0.000000
      2          6           0       -0.600580   -1.050847    0.000000
      3          6           0       -1.351165    0.249128    0.000000
      4          1           0       -2.638291   -1.360722   -0.913858
      5          1           0       -2.638291   -1.360722    0.913858
      6          1           0       -0.064019   -1.360614   -0.913888
      7          1           0       -0.064019   -1.360614    0.913888
      8          1           0       -1.351388    0.868656    0.913944
      9          1           0       -1.351388    0.868656   -0.913944
 ---------------------------------------------------------------------
                    Distance matrix (angstroms):
                    1          2          3          4          5
     1  C    0.000000
     2  C    1.501115   0.000000
     3  C    1.501076   1.501104   0.000000
     4  H    1.104126   2.254645   2.254650   0.000000
     5  H    1.104126   2.254645   2.254650   1.827716   0.000000
     6  H    2.254611   1.104104   2.254597   2.574272   3.157140
     7  H    2.254611   1.104104   2.254597   3.157140   2.574272
     8  H    2.254495   2.254661   1.104133   3.157072   2.574149
     9  H    2.254495   2.254661   1.104133   2.574149   3.157072
                    6          7          8          9
     6  H    0.000000
     7  H    1.827776   0.000000
     8  H    3.157203   2.574289   0.000000
     9  H    2.574289   3.157203   1.827888   0.000000
 Stoichiometry    C3H6
 Framework group  CS[SG(C3),X(H6)]
 Deg. of freedom    12
 Full point group                 CS      NOp   2
 Largest Abelian subgroup         CS      NOp   2
 Largest concise Abelian subgroup CS      NOp   2
                         Standard orientation:                         
 ---------------------------------------------------------------------
 Center     Atomic      Atomic             Coordinates (Angstroms)
 Number     Number       Type             X           Y           Z
 ---------------------------------------------------------------------
      1          6           0        0.000000    0.866633    0.000000
      2          6           0        0.750556   -0.433372    0.000000
      3          6           0       -0.750548   -0.433331    0.000000
      4          1           0        0.000062    1.486276    0.913858
      5          1           0        0.000062    1.486276   -0.913858
      6          1           0        1.287102   -0.743164    0.913888
      7          1           0        1.287102   -0.743164   -0.913888
      8          1           0       -1.287187   -0.742902   -0.913944
      9          1           0       -1.287187   -0.742902    0.913944
 ---------------------------------------------------------------------
 Rotational constants (GHZ):          20.0166502          20.0152983          12.5104169
 Standard basis: CC-pVDZ (5D, 7F)
 There are    48 symmetry adapted cartesian basis functions of A'  symmetry.
 There are    27 symmetry adapted cartesian basis functions of A"  symmetry.
 There are    45 symmetry adapted basis functions of A'  symmetry.
 There are    27 symmetry adapted basis functions of A"  symmetry.
    72 basis functions,   141 primitive gaussians,    75 cartesian basis functions
    12 alpha electrons       12 beta electrons
       nuclear repulsion energy        75.3334482538 Hartrees.
 NAtoms=    9 NActive=    9 NUniq=    6 SFac= 2.25D+00 NAtFMM=   60 NAOKFM=F Big=F
 Integral buffers will be    131072 words long.
 Raffenetti 2 integral format.
 Two-electron integral symmetry is turned on.
 One-electron integrals computed using PRISM.
 NBasis=    72 RedAO= T EigKep=  5.79D-03  NBF=    45    27
 NBsUse=    72 1.00D-06 EigRej= -1.00D+00 NBFU=    45    27
 ExpMin= 1.22D-01 ExpMax= 6.67D+03 ExpMxC= 2.28D+02 IAcc=3 IRadAn=         5 AccDes= 0.00D+00
 Harris functional with IExCor=  402 and IRadAn=       5 diagonalized for initial guess.
 HarFok:  IExCor=  402 AccDes= 0.00D+00 IRadAn=         5 IDoV= 1 UseB2=F ITyADJ=14
 ICtDFT=  3500011 ScaDFX=  1.000000  1.000000  1.000000  1.000000
 FoFCou: FMM=F IPFlag=           0 FMFlag=      100000 FMFlg1=           0
         NFxFlg=           0 DoJE=T BraDBF=F KetDBF=T FulRan=T
         wScrn=  0.000000 ICntrl=       500 IOpCl=  0 I1Cent=   200000004 NGrid=           0
         NMat0=    1 NMatS0=      1 NMatT0=    0 NMatD0=    1 NMtDS0=    0 NMtDT0=    0
 Petite list used in FoFCou.
 Initial guess orbital symmetries:
       Occupied  (A') (A') (A') (A') (A') (A') (A") (A') (A") (A")
                 (A') (A')
       Virtual   (A") (A') (A') (A') (A') (A") (A") (A') (A') (A")
                 (A') (A') (A') (A') (A') (A') (A") (A") (A') (A")
                 (A") (A") (A') (A') (A') (A") (A') (A') (A') (A")
                 (A") (A") (A') (A') (A') (A') (A") (A") (A") (A")
                 (A") (A') (A') (A') (A') (A') (A') (A') (A") (A")
                 (A') (A") (A') (A') (A') (A") (A') (A') (A") (A")
 The electronic state of the initial guess is 1-A'.
 Keep R1 ints in memory in symmetry-blocked form, NReq=7047448.
 Requested convergence on RMS density matrix=1.00D-08 within 128 cycles.
 Requested convergence on MAX density matrix=1.00D-06.
 Requested convergence on             energy=1.00D-06.
 No special actions if energy rises.
 Integral accuracy reduced to 1.0D-05 until final iterations.
 Initial convergence to 1.0D-05 achieved.  Increase integral accuracy.
 SCF Done:  E(RB3LYP) =  -117.896972692     A.U. after    9 cycles
            NFock=  9  Conv=0.38D-08     -V/T= 2.0095

 **********************************************************************

            Population analysis using the SCF density.

 **********************************************************************

 Orbital symmetries:
       Occupied  (A') (A') (A') (A') (A') (A') (A") (A') (A") (A")
                 (A') (A')
       Virtual   (A') (A") (A') (A') (A') (A") (A") (A') (A') (A')
                 (A") (A') (A') (A') (A') (A') (A') (A") (A") (A")
                 (A") (A") (A') (A') (A') (A") (A') (A') (A") (A")
                 (A') (A") (A') (A') (A') (A') (A") (A") (A") (A")
                 (A") (A') (A') (A') (A') (A') (A') (A") (A") (A')
                 (A') (A") (A') (A') (A') (A") (A') (A') (A") (A")
 The electronic state is 1-A'.
 Alpha  occ. eigenvalues --  -10.18949 -10.18918 -10.18918  -0.85026  -0.59209
 Alpha  occ. eigenvalues --   -0.59207  -0.48403  -0.46666  -0.35391  -0.35389
 Alpha  occ. eigenvalues --   -0.29648  -0.29646
 Alpha virt. eigenvalues --    0.06783   0.07328   0.10821   0.10822   0.14594
 Alpha virt. eigenvalues --    0.17958   0.17959   0.24756   0.24757   0.38573
 Alpha virt. eigenvalues --    0.38617   0.48207   0.48211   0.51824   0.55992
 Alpha virt. eigenvalues --    0.55994   0.61683   0.62534   0.62541   0.65532
 Alpha virt. eigenvalues --    0.66178   0.66183   0.67741   0.67742   0.79516
 Alpha virt. eigenvalues --    1.13361   1.17047   1.17050   1.18221   1.18225
 Alpha virt. eigenvalues --    1.18753   1.42071   1.45384   1.45389   1.55880
 Alpha virt. eigenvalues --    1.55882   1.59311   1.59319   1.60223   1.70615
 Alpha virt. eigenvalues --    1.70619   1.71673   1.71980   1.78603   1.78607
 Alpha virt. eigenvalues --    1.92542   1.92544   2.06791   2.06792   2.07192
 Alpha virt. eigenvalues --    2.08346   2.29277   2.29768   2.29776   2.32318
 Alpha virt. eigenvalues --    2.40395   2.52477   2.52492   2.75479   2.75485
          Condensed to atoms (all electrons):
               1          2          3          4          5          6
     1  C    4.639957   0.345898   0.345914   0.387660   0.387660  -0.014680
     2  C    0.345898   4.639888   0.345933  -0.014679  -0.014679   0.387656
     3  C    0.345914   0.345933   4.639893  -0.014683  -0.014683  -0.014677
     4  H    0.387660  -0.014679  -0.014683   0.675291  -0.046035  -0.010178
     5  H    0.387660  -0.014679  -0.014683  -0.046035   0.675291   0.004322
     6  H   -0.014680   0.387656  -0.014677  -0.010178   0.004322   0.675278
     7  H   -0.014680   0.387656  -0.014677   0.004322  -0.010178  -0.046031
     8  H   -0.014683  -0.014678   0.387649   0.004323  -0.010181   0.004322
     9  H   -0.014683  -0.014678   0.387649  -0.010181   0.004323  -0.010179
               7          8          9
     1  C   -0.014680  -0.014683  -0.014683
     2  C    0.387656  -0.014678  -0.014678
     3  C   -0.014677   0.387649   0.387649
     4  H    0.004322   0.004323  -0.010181
     5  H   -0.010178  -0.010181   0.004323
     6  H   -0.046031   0.004322  -0.010179
     7  H    0.675278  -0.010179   0.004322
     8  H   -0.010179   0.675279  -0.046025
     9  H    0.004322  -0.046025   0.675279
 Mulliken charges:
               1
     1  C   -0.048363
     2  C   -0.048316
     3  C   -0.048319
     4  H    0.024160
     5  H    0.024160
     6  H    0.024167
     7  H    0.024167
     8  H    0.024172
     9  H    0.024172
 Sum of Mulliken charges =   0.00000
 Mulliken charges with hydrogens summed into heavy atoms:
               1
     1  C   -0.000044
     2  C    0.000017
     3  C    0.000026
 Electronic spatial extent (au):  <R**2>=            157.9582
 Charge=              0.0000 electrons
 Dipole moment (field-independent basis, Debye):
    X=             -0.0001    Y=              0.0001    Z=              0.0000  Tot=              0.0001
 Quadrupole moment (field-independent basis, Debye-Ang):
   XX=            -20.5567   YY=            -20.5575   ZZ=            -18.6779
   XY=             -0.0004   XZ=              0.0000   YZ=              0.0000
 Traceless Quadrupole moment (field-independent basis, Debye-Ang):
   XX=             -0.6260   YY=             -0.6268   ZZ=              1.2528
   XY=             -0.0004   XZ=              0.0000   YZ=              0.0000
 Octapole moment (field-independent basis, Debye-Ang**2):
  XXX=             -0.0005  YYY=              2.0228  ZZZ=              0.0000  XYY=              0.0010
  XXY=             -2.0213  XXZ=              0.0000  XZZ=             -0.0003  YZZ=             -0.0002
  YYZ=              0.0000  XYZ=              0.0000
 Hexadecapole moment (field-independent basis, Debye-Ang**3):
 XXXX=            -88.2940 YYYY=            -88.2932 ZZZZ=            -41.0604 XXXY=              0.0004
 XXXZ=              0.0000 YYYX=              0.0005 YYYZ=              0.0000 ZZZX=              0.0000
 ZZZY=              0.0000 XXYY=            -29.4323 XXZZ=            -19.8013 YYZZ=            -19.8025
 XXYZ=              0.0000 YYXZ=              0.0000 ZZXY=              0.0002
 N-N= 7.533344825376D+01 E-N=-4.227843732961D+02  KE= 1.167907200917D+02
 Symmetry A'   KE= 1.109662780602D+02
 Symmetry A"   KE= 5.824442031541D+00
 Calling FoFJK, ICntrl=      2127 FMM=F ISym2X=1 I1Cent= 0 IOpClX= 0 NMat=1 NMatS=1 NMatT=0.
 ***** Axes restored to original set *****
 -------------------------------------------------------------------
 Center     Atomic                   Forces (Hartrees/Bohr)
 Number     Number              X              Y              Z
 -------------------------------------------------------------------
      1        6          -0.015626445   -0.009052057    0.000000000
      2        6           0.015596376   -0.009002541    0.000000000
      3        6          -0.000028661    0.018036544    0.000000000
      4        1           0.005265639    0.003042960    0.003922430
      5        1           0.005265639    0.003042960   -0.003922430
      6        1          -0.005252240    0.003033287    0.003919399
      7        1          -0.005252240    0.003033287   -0.003919399
      8        1           0.000015966   -0.006067220   -0.003941041
      9        1           0.000015966   -0.006067220    0.003941041
 -------------------------------------------------------------------
 Cartesian Forces:  Max     0.018036544 RMS     0.006910710

 GradGradGradGradGradGradGradGradGradGradGradGradGradGradGradGradGradGrad
 Berny optimization.
 FormGI is forming the generalized inverse of G from B-inverse, IUseBI=4.
 Internal  Forces:  Max     0.006666507 RMS     0.003081202
 Search for a local minimum.
 Step number   1 out of a maximum of   46
 All quantities printed in internal units (Hartrees-Bohrs-Radians)
 Mixed Optimization -- RFO/linear search
 Second derivative matrix not updated -- first step.
 ITU=  0
     Eigenvalues ---    0.02048   0.03141   0.03141   0.03141   0.03473
     Eigenvalues ---    0.03474   0.10353   0.10354   0.10834   0.16000
     Eigenvalues ---    0.16000   0.16000   0.28209   0.28211   0.32262
     Eigenvalues ---    0.33229   0.33229   0.33230   0.33230   0.33232
     Eigenvalues ---    0.33232
 RFO step:  Lambda=-1.27938277D-03 EMin= 2.04770673D-02
 Linear search not attempted -- first point.
 Iteration  1 RMS(Cart)=  0.00985849 RMS(Int)=  0.00009227
 Iteration  2 RMS(Cart)=  0.00008649 RMS(Int)=  0.00002477
 Iteration  3 RMS(Cart)=  0.00000001 RMS(Int)=  0.00002477
 ClnCor:  largest displacement from symmetrization is 8.81D-12 for atom     7.
 Variable       Old X    -DE/DX   Delta X   Delta X   Delta X     New X
                                 (Linear)    (Quad)   (Total)
    R1        2.83670   0.00339   0.00000   0.01047   0.01047   2.84717
    R2        2.83662   0.00342   0.00000   0.01056   0.01056   2.84718
    R3        2.08650  -0.00666   0.00000  -0.01996  -0.01996   2.06653
    R4        2.08650  -0.00666   0.00000  -0.01996  -0.01996   2.06653
    R5        2.83668   0.00340   0.00000   0.01047   0.01047   2.84715
    R6        2.08645  -0.00665   0.00000  -0.01993  -0.01993   2.06653
    R7        2.08645  -0.00665   0.00000  -0.01993  -0.01993   2.06653
    R8        2.08651  -0.00667   0.00000  -0.01999  -0.01999   2.06652
    R9        2.08651  -0.00667   0.00000  -0.01999  -0.01999   2.06652
    A1        2.07829  -0.00096   0.00000  -0.00872  -0.00874   2.06955
    A2        2.07829  -0.00096   0.00000  -0.00872  -0.00874   2.06955
    A3        2.07836  -0.00096   0.00000  -0.00876  -0.00878   2.06958
    A4        2.07836  -0.00096   0.00000  -0.00876  -0.00878   2.06958
    A5        1.94991   0.00234   0.00000   0.02131   0.02134   1.97125
    A6        2.07827  -0.00096   0.00000  -0.00870  -0.00872   2.06955
    A7        2.07827  -0.00096   0.00000  -0.00870  -0.00872   2.06955
    A8        2.07826  -0.00096   0.00000  -0.00872  -0.00874   2.06952
    A9        2.07826  -0.00096   0.00000  -0.00872  -0.00874   2.06952
   A10        1.95006   0.00233   0.00000   0.02122   0.02125   1.97131
   A11        2.07811  -0.00095   0.00000  -0.00855  -0.00857   2.06954
   A12        2.07811  -0.00095   0.00000  -0.00855  -0.00857   2.06954
   A13        2.07833  -0.00095   0.00000  -0.00880  -0.00882   2.06951
   A14        2.07833  -0.00095   0.00000  -0.00880  -0.00882   2.06951
   A15        1.95017   0.00232   0.00000   0.02115   0.02118   1.97134
    D1        0.00012  -0.00001   0.00000  -0.00006  -0.00006   0.00006
    D2       -2.48787  -0.00153   0.00000  -0.01396  -0.01391  -2.50178
    D3        2.48787   0.00153   0.00000   0.01396   0.01391   2.50178
    D4       -0.00012   0.00001   0.00000   0.00006   0.00006  -0.00006
    D5        2.48781   0.00153   0.00000   0.01408   0.01403   2.50184
    D6        0.00015   0.00000   0.00000  -0.00018  -0.00018  -0.00003
    D7       -0.00015   0.00000   0.00000   0.00018   0.00018   0.00003
    D8       -2.48781  -0.00153   0.00000  -0.01408  -0.01403  -2.50184
    D9       -2.48818  -0.00151   0.00000  -0.01365  -0.01360  -2.50177
   D10        0.00021  -0.00001   0.00000  -0.00020  -0.00020   0.00001
   D11       -0.00021   0.00001   0.00000   0.00020   0.00020  -0.00001
   D12        2.48818   0.00151   0.00000   0.01365   0.01360   2.50177
         Item               Value     Threshold  Converged?
 Maximum Force            0.006667     0.000450     NO 
 RMS     Force            0.003081     0.000300     NO 
 Maximum Displacement     0.023346     0.001800     NO 
 RMS     Displacement     0.009862     0.001200     NO 
 Predicted change in Energy=-6.430026D-04
 GradGradGradGradGradGradGradGradGradGradGradGradGradGradGradGradGradGrad

                          Input orientation:                          
 ---------------------------------------------------------------------
 Center     Atomic      Atomic             Coordinates (Angstroms)
 Number     Number       Type             X           Y           Z
 ---------------------------------------------------------------------
      1          6           0       -2.104516   -1.052524    0.000000
      2          6           0       -0.597858   -1.052423    0.000000
      3          6           0       -1.351256    0.252327    0.000000
      4          1           0       -2.627583   -1.354589   -0.911611
      5          1           0       -2.627583   -1.354589    0.911611
      6          1           0       -0.074757   -1.354367   -0.911628
      7          1           0       -0.074757   -1.354367    0.911628
      8          1           0       -1.351264    0.856301    0.911637
      9          1           0       -1.351264    0.856301   -0.911637
 ---------------------------------------------------------------------
                    Distance matrix (angstroms):
                    1          2          3          4          5
     1  C    0.000000
     2  C    1.506658   0.000000
     3  C    1.506664   1.506645   0.000000
     4  H    1.093562   2.245467   2.245490   0.000000
     5  H    1.093562   2.245467   2.245490   1.823222   0.000000
     6  H    2.245461   1.093559   2.245436   2.552826   3.137056
     7  H    2.245461   1.093559   2.245436   3.137056   2.552826
     8  H    2.245459   2.245424   1.093557   3.137078   2.552847
     9  H    2.245459   2.245424   1.093557   2.552847   3.137078
                    6          7          8          9
     6  H    0.000000
     7  H    1.823256   0.000000
     8  H    3.137008   2.552749   0.000000
     9  H    2.552749   3.137008   1.823273   0.000000
 Stoichiometry    C3H6
 Framework group  CS[SG(C3),X(H6)]
 Deg. of freedom    12
 Full point group                 CS      NOp   2
 Largest Abelian subgroup         CS      NOp   2
 Largest concise Abelian subgroup CS      NOp   2
                         Standard orientation:                         
 ---------------------------------------------------------------------
 Center     Atomic      Atomic             Coordinates (Angstroms)
 Number     Number       Type             X           Y           Z
 ---------------------------------------------------------------------
      1          6           0        0.753330    0.434943    0.000000
      2          6           0        0.000000   -0.869860    0.000000
      3          6           0       -0.753334    0.434927    0.000000
      4          1           0        1.276439    0.736934    0.911611
      5          1           0        1.276439    0.736934   -0.911611
      6          1           0       -0.000020   -1.473851    0.911628
      7          1           0       -0.000020   -1.473851   -0.911628
      8          1           0       -1.276407    0.736886   -0.911637
      9          1           0       -1.276407    0.736886    0.911637
 ---------------------------------------------------------------------
 Rotational constants (GHZ):          20.0445692          20.0437644          12.5168858
 Standard basis: CC-pVDZ (5D, 7F)
 There are    48 symmetry adapted cartesian basis functions of A'  symmetry.
 There are    27 symmetry adapted cartesian basis functions of A"  symmetry.
 There are    45 symmetry adapted basis functions of A'  symmetry.
 There are    27 symmetry adapted basis functions of A"  symmetry.
    72 basis functions,   141 primitive gaussians,    75 cartesian basis functions
    12 alpha electrons       12 beta electrons
       nuclear repulsion energy        75.4475010557 Hartrees.
 NAtoms=    9 NActive=    9 NUniq=    6 SFac= 2.25D+00 NAtFMM=   60 NAOKFM=F Big=F
 Integral buffers will be    131072 words long.
 Raffenetti 2 integral format.
 Two-electron integral symmetry is turned on.
 One-electron integrals computed using PRISM.
 NBasis=    72 RedAO= T EigKep=  5.87D-03  NBF=    45    27
 NBsUse=    72 1.00D-06 EigRej= -1.00D+00 NBFU=    45    27
 Initial guess from the checkpoint file:  "C3H6_opt.chk"
 B after Tr=     0.000000    0.000000    0.000000
         Rot=    0.866037    0.000000    0.000000    0.499980 Ang=  60.00 deg.
 Initial guess orbital symmetries:
       Occupied  (A') (A') (A') (A') (A') (A') (A") (A') (A") (A")
                 (A') (A')
       Virtual   (A') (A") (A') (A') (A') (A") (A") (A') (A') (A')
                 (A") (A') (A') (A') (A') (A') (A') (A") (A") (A")
                 (A") (A") (A') (A') (A') (A") (A') (A') (A") (A")
                 (A') (A") (A') (A') (A') (A') (A") (A") (A") (A")
                 (A") (A') (A') (A') (A') (A') (A') (A") (A") (A')
                 (A') (A") (A') (A') (A') (A") (A') (A') (A") (A")
 ExpMin= 1.22D-01 ExpMax= 6.67D+03 ExpMxC= 2.28D+02 IAcc=2 IRadAn=         4 AccDes= 0.00D+00
 Harris functional with IExCor=  402 and IRadAn=       4 diagonalized for initial guess.
 HarFok:  IExCor=  402 AccDes= 0.00D+00 IRadAn=         4 IDoV= 1 UseB2=F ITyADJ=14
 ICtDFT=  3500011 ScaDFX=  1.000000  1.000000  1.000000  1.000000
 FoFCou: FMM=F IPFlag=           0 FMFlag=      100000 FMFlg1=           0
         NFxFlg=           0 DoJE=T BraDBF=F KetDBF=T FulRan=T
         wScrn=  0.000000 ICntrl=       500 IOpCl=  0 I1Cent=   200000004 NGrid=           0
         NMat0=    1 NMatS0=      1 NMatT0=    0 NMatD0=    1 NMtDS0=    0 NMtDT0=    0
 Petite list used in FoFCou.
 Keep R1 ints in memory in symmetry-blocked form, NReq=7047448.
 Requested convergence on RMS density matrix=1.00D-08 within 128 cycles.
 Requested convergence on MAX density matrix=1.00D-06.
 Requested convergence on             energy=1.00D-06.
 No special actions if energy rises.
 Integral accuracy reduced to 1.0D-05 until final iterations.
 Initial convergence to 1.0D-05 achieved.  Increase integral accuracy.
 SCF Done:  E(RB3LYP) =  -117.897752110     A.U. after    8 cycles
            NFock=  8  Conv=0.53D-08     -V/T= 2.0090
 Calling FoFJK, ICntrl=      2127 FMM=F ISym2X=1 I1Cent= 0 IOpClX= 0 NMat=1 NMatS=1 NMatT=0.
 ***** Axes restored to original set *****
 -------------------------------------------------------------------
 Center     Atomic                   Forces (Hartrees/Bohr)
 Number     Number              X              Y              Z
 -------------------------------------------------------------------
      1        6          -0.004473588   -0.002585576    0.000000000
      2        6           0.004479433   -0.002588186    0.000000000
      3        6          -0.000004363    0.005162140    0.000000000
      4        1           0.001229318    0.000712544   -0.000775512
      5        1           0.001229318    0.000712544    0.000775512
      6        1          -0.001227267    0.000706423   -0.000774355
      7        1          -0.001227267    0.000706423    0.000774355
      8        1          -0.000002791   -0.001413156    0.000772897
      9        1          -0.000002791   -0.001413156   -0.000772897
 -------------------------------------------------------------------
 Cartesian Forces:  Max     0.005162140 RMS     0.001883152

 GradGradGradGradGradGradGradGradGradGradGradGradGradGradGradGradGradGrad
 Berny optimization.
 Using GEDIIS/GDIIS optimizer.
 FormGI is forming the generalized inverse of G from B-inverse, IUseBI=4.
 Internal  Forces:  Max     0.001357681 RMS     0.000721405
 Search for a local minimum.
 Step number   2 out of a maximum of   46
 All quantities printed in internal units (Hartrees-Bohrs-Radians)
 Mixed Optimization -- En-DIIS/RFO-DIIS
 Update second derivatives using D2CorX and points    1    2
 DE= -7.79D-04 DEPred=-6.43D-04 R= 1.21D+00
 TightC=F SS=  1.41D+00  RLast= 7.84D-02 DXNew= 5.0454D-01 2.3510D-01
 Trust test= 1.21D+00 RLast= 7.84D-02 DXMaxT set to 3.00D-01
 ITU=  1  0
 Use linear search instead of GDIIS.
     Eigenvalues ---    0.02042   0.03131   0.03132   0.03132   0.03489
     Eigenvalues ---    0.03490   0.07817   0.10445   0.10445   0.16000
     Eigenvalues ---    0.16000   0.16000   0.28329   0.28331   0.30683
     Eigenvalues ---    0.33229   0.33230   0.33230   0.33231   0.33232
     Eigenvalues ---    0.38598
 RFO step:  Lambda=-1.24598801D-04 EMin= 2.04221336D-02
 Quartic linear search produced a step of  0.26070.
 Iteration  1 RMS(Cart)=  0.00606124 RMS(Int)=  0.00003781
 Iteration  2 RMS(Cart)=  0.00003074 RMS(Int)=  0.00002202
 Iteration  3 RMS(Cart)=  0.00000000 RMS(Int)=  0.00002202
 ClnCor:  largest displacement from symmetrization is 3.40D-12 for atom     9.
 Variable       Old X    -DE/DX   Delta X   Delta X   Delta X     New X
                                 (Linear)    (Quad)   (Total)
    R1        2.84717   0.00135   0.00273   0.00351   0.00624   2.85341
    R2        2.84718   0.00134   0.00275   0.00346   0.00621   2.85340
    R3        2.06653  -0.00014  -0.00520   0.00281  -0.00240   2.06414
    R4        2.06653  -0.00014  -0.00520   0.00281  -0.00240   2.06414
    R5        2.84715   0.00136   0.00273   0.00355   0.00628   2.85343
    R6        2.06653  -0.00014  -0.00519   0.00281  -0.00239   2.06414
    R7        2.06653  -0.00014  -0.00519   0.00281  -0.00239   2.06414
    R8        2.06652  -0.00014  -0.00521   0.00282  -0.00239   2.06413
    R9        2.06652  -0.00014  -0.00521   0.00282  -0.00239   2.06413
    A1        2.06955  -0.00055  -0.00228  -0.00472  -0.00702   2.06253
    A2        2.06955  -0.00055  -0.00228  -0.00472  -0.00702   2.06253
    A3        2.06958  -0.00055  -0.00229  -0.00477  -0.00707   2.06250
    A4        2.06958  -0.00055  -0.00229  -0.00477  -0.00707   2.06250
    A5        1.97125   0.00133   0.00556   0.01153   0.01712   1.98837
    A6        2.06955  -0.00054  -0.00227  -0.00475  -0.00704   2.06251
    A7        2.06955  -0.00054  -0.00227  -0.00475  -0.00704   2.06251
    A8        2.06952  -0.00054  -0.00228  -0.00471  -0.00700   2.06252
    A9        2.06952  -0.00054  -0.00228  -0.00471  -0.00700   2.06252
   A10        1.97131   0.00132   0.00554   0.01151   0.01707   1.98838
   A11        2.06954  -0.00054  -0.00223  -0.00478  -0.00704   2.06250
   A12        2.06954  -0.00054  -0.00223  -0.00478  -0.00704   2.06250
   A13        2.06951  -0.00054  -0.00230  -0.00466  -0.00698   2.06253
   A14        2.06951  -0.00054  -0.00230  -0.00466  -0.00698   2.06253
   A15        1.97134   0.00132   0.00552   0.01149   0.01703   1.98838
    D1        0.00006   0.00000  -0.00002  -0.00006  -0.00008  -0.00003
    D2       -2.50178  -0.00086  -0.00363  -0.00747  -0.01105  -2.51284
    D3        2.50178   0.00086   0.00363   0.00747   0.01105   2.51284
    D4       -0.00006   0.00000   0.00002   0.00006   0.00008   0.00003
    D5        2.50184   0.00085   0.00366   0.00732   0.01094   2.51278
    D6       -0.00003   0.00000  -0.00005   0.00007   0.00002  -0.00001
    D7        0.00003   0.00000   0.00005  -0.00007  -0.00002   0.00001
    D8       -2.50184  -0.00085  -0.00366  -0.00732  -0.01094  -2.51278
    D9       -2.50177  -0.00086  -0.00354  -0.00760  -0.01110  -2.51287
   D10        0.00001   0.00000  -0.00005   0.00005   0.00000   0.00001
   D11       -0.00001   0.00000   0.00005  -0.00005   0.00000  -0.00001
   D12        2.50177   0.00086   0.00354   0.00760   0.01110   2.51287
         Item               Value     Threshold  Converged?
 Maximum Force            0.001358     0.000450     NO 
 RMS     Force            0.000721     0.000300     NO 
 Maximum Displacement     0.012425     0.001800     NO 
 RMS     Displacement     0.006061     0.001200     NO 
 Predicted change in Energy=-1.007307D-04
 GradGradGradGradGradGradGradGradGradGradGradGradGradGradGradGradGradGrad

                          Input orientation:                          
 ---------------------------------------------------------------------
 Center     Atomic      Atomic             Coordinates (Angstroms)
 Number     Number       Type             X           Y           Z
 ---------------------------------------------------------------------
      1          6           0       -2.106139   -1.053483    0.000000
      2          6           0       -0.596180   -1.053392    0.000000
      3          6           0       -1.351256    0.254228    0.000000
      4          1           0       -2.621855   -1.351246   -0.915685
      5          1           0       -2.621855   -1.351246    0.915685
      6          1           0       -0.080452   -1.351121   -0.915692
      7          1           0       -0.080452   -1.351121    0.915692
      8          1           0       -1.351324    0.849726    0.915687
      9          1           0       -1.351324    0.849726   -0.915687
 ---------------------------------------------------------------------
                    Distance matrix (angstroms):
                    1          2          3          4          5
     1  C    0.000000
     2  C    1.509959   0.000000
     3  C    1.509953   1.509970   0.000000
     4  H    1.092293   2.242890   2.242866   0.000000
     5  H    1.092293   2.242890   2.242866   1.831370   0.000000
     6  H    2.242875   1.092296   2.242896   2.541403   3.132518
     7  H    2.242875   1.092296   2.242896   3.132518   2.541403
     8  H    2.242863   2.242897   1.092292   3.132484   2.541364
     9  H    2.242863   2.242897   1.092292   2.541364   3.132484
                    6          7          8          9
     6  H    0.000000
     7  H    1.831384   0.000000
     8  H    3.132539   2.541426   0.000000
     9  H    2.541426   3.132539   1.831375   0.000000
 Stoichiometry    C3H6
 Framework group  CS[SG(C3),X(H6)]
 Deg. of freedom    12
 Full point group                 CS      NOp   2
 Largest Abelian subgroup         CS      NOp   2
 Largest concise Abelian subgroup CS      NOp   2
                         Standard orientation:                         
 ---------------------------------------------------------------------
 Center     Atomic      Atomic             Coordinates (Angstroms)
 Number     Number       Type             X           Y           Z
 ---------------------------------------------------------------------
      1          6           0        0.000000    0.871767    0.000000
      2          6           0        0.754989   -0.435890    0.000000
      3          6           0       -0.754981   -0.435888    0.000000
      4          1           0       -0.000028    1.467271    0.915685
      5          1           0       -0.000028    1.467271   -0.915685
      6          1           0        1.270715   -0.733624    0.915692
      7          1           0        1.270715   -0.733624   -0.915692
      8          1           0       -1.270712   -0.733613   -0.915687
      9          1           0       -1.270712   -0.733613    0.915687
 ---------------------------------------------------------------------
 Rotational constants (GHZ):          20.0078502          20.0072659          12.5161172
 Standard basis: CC-pVDZ (5D, 7F)
 There are    48 symmetry adapted cartesian basis functions of A'  symmetry.
 There are    27 symmetry adapted cartesian basis functions of A"  symmetry.
 There are    45 symmetry adapted basis functions of A'  symmetry.
 There are    27 symmetry adapted basis functions of A"  symmetry.
    72 basis functions,   141 primitive gaussians,    75 cartesian basis functions
    12 alpha electrons       12 beta electrons
       nuclear repulsion energy        75.4073235734 Hartrees.
 NAtoms=    9 NActive=    9 NUniq=    6 SFac= 2.25D+00 NAtFMM=   60 NAOKFM=F Big=F
 Integral buffers will be    131072 words long.
 Raffenetti 2 integral format.
 Two-electron integral symmetry is turned on.
 One-electron integrals computed using PRISM.
 NBasis=    72 RedAO= T EigKep=  5.90D-03  NBF=    45    27
 NBsUse=    72 1.00D-06 EigRej= -1.00D+00 NBFU=    45    27
 Initial guess from the checkpoint file:  "C3H6_opt.chk"
 B after Tr=     0.000000    0.000000    0.000000
         Rot=    0.866026    0.000000    0.000000   -0.499999 Ang= -60.00 deg.
 Initial guess orbital symmetries:
       Occupied  (A') (A') (A') (A') (A') (A') (A") (A') (A") (A")
                 (A') (A')
       Virtual   (A') (A") (A') (A') (A') (A") (A") (A') (A') (A')
                 (A") (A') (A') (A') (A') (A') (A') (A") (A") (A")
                 (A") (A") (A') (A') (A') (A") (A') (A') (A") (A")
                 (A') (A") (A') (A') (A') (A') (A") (A") (A") (A')
                 (A") (A") (A') (A') (A') (A') (A') (A') (A") (A")
                 (A') (A') (A') (A") (A') (A") (A') (A') (A") (A")
 Keep R1 ints in memory in symmetry-blocked form, NReq=7047448.
 Requested convergence on RMS density matrix=1.00D-08 within 128 cycles.
 Requested convergence on MAX density matrix=1.00D-06.
 Requested convergence on             energy=1.00D-06.
 No special actions if energy rises.
 SCF Done:  E(RB3LYP) =  -117.897870854     A.U. after    6 cycles
            NFock=  6  Conv=0.80D-08     -V/T= 2.0090
 Calling FoFJK, ICntrl=      2127 FMM=F ISym2X=1 I1Cent= 0 IOpClX= 0 NMat=1 NMatS=1 NMatT=0.
 ***** Axes restored to original set *****
 -------------------------------------------------------------------
 Center     Atomic                   Forces (Hartrees/Bohr)
 Number     Number              X              Y              Z
 -------------------------------------------------------------------
      1        6          -0.000541778   -0.000310974    0.000000000
      2        6           0.000531613   -0.000306042    0.000000000
      3        6           0.000001841    0.000614877    0.000000000
      4        1           0.000071318    0.000039000   -0.000601798
      5        1           0.000071318    0.000039000    0.000601798
      6        1          -0.000069969    0.000042404   -0.000598736
      7        1          -0.000069969    0.000042404    0.000598736
      8        1           0.000002813   -0.000080335    0.000601299
      9        1           0.000002813   -0.000080335   -0.000601299
 -------------------------------------------------------------------
 Cartesian Forces:  Max     0.000614877 RMS     0.000352164

 GradGradGradGradGradGradGradGradGradGradGradGradGradGradGradGradGradGrad
 Berny optimization.
 Using GEDIIS/GDIIS optimizer.
 FormGI is forming the generalized inverse of G from B-inverse, IUseBI=4.
 Internal  Forces:  Max     0.000460282 RMS     0.000251146
 Search for a local minimum.
 Step number   3 out of a maximum of   46
 All quantities printed in internal units (Hartrees-Bohrs-Radians)
 Mixed Optimization -- En-DIIS/RFO-DIIS
 Swapping is turned off.
 Update second derivatives using D2CorX and points    1    2    3
 DE= -1.19D-04 DEPred=-1.01D-04 R= 1.18D+00
 TightC=F SS=  1.41D+00  RLast= 4.85D-02 DXNew= 5.0454D-01 1.4538D-01
 Trust test= 1.18D+00 RLast= 4.85D-02 DXMaxT set to 3.00D-01
 ITU=  1  1  0
     Eigenvalues ---    0.02038   0.03124   0.03124   0.03124   0.03502
     Eigenvalues ---    0.03502   0.06293   0.10517   0.10517   0.16000
     Eigenvalues ---    0.16000   0.16000   0.28421   0.28424   0.30667
     Eigenvalues ---    0.33229   0.33230   0.33230   0.33231   0.33232
     Eigenvalues ---    0.41903
 En-DIIS/RFO-DIIS/Sim-DIIS IScMMF=       -3 using points:     3    2
 RFO step:  Lambda=-1.58606068D-05.
 DidBck=F Rises=F RFO-DIIS coefs:    1.28364   -0.28364
 Iteration  1 RMS(Cart)=  0.00190083 RMS(Int)=  0.00000653
 Iteration  2 RMS(Cart)=  0.00000305 RMS(Int)=  0.00000574
 Iteration  3 RMS(Cart)=  0.00000000 RMS(Int)=  0.00000574
 ClnCor:  largest displacement from symmetrization is 6.17D-12 for atom     7.
 Variable       Old X    -DE/DX   Delta X   Delta X   Delta X     New X
                                 (Linear)    (Quad)   (Total)
    R1        2.85341   0.00026   0.00177  -0.00014   0.00163   2.85504
    R2        2.85340   0.00027   0.00176  -0.00011   0.00166   2.85505
    R3        2.06414   0.00046  -0.00068   0.00150   0.00082   2.06495
    R4        2.06414   0.00046  -0.00068   0.00150   0.00082   2.06495
    R5        2.85343   0.00026   0.00178  -0.00019   0.00159   2.85502
    R6        2.06414   0.00046  -0.00068   0.00149   0.00081   2.06495
    R7        2.06414   0.00046  -0.00068   0.00149   0.00081   2.06495
    R8        2.06413   0.00046  -0.00068   0.00150   0.00082   2.06495
    R9        2.06413   0.00046  -0.00068   0.00150   0.00082   2.06495
    A1        2.06253  -0.00013  -0.00199  -0.00010  -0.00210   2.06043
    A2        2.06253  -0.00013  -0.00199  -0.00010  -0.00210   2.06043
    A3        2.06250  -0.00013  -0.00201  -0.00005  -0.00206   2.06045
    A4        2.06250  -0.00013  -0.00201  -0.00005  -0.00206   2.06045
    A5        1.98837   0.00033   0.00486   0.00019   0.00505   1.99342
    A6        2.06251  -0.00013  -0.00200  -0.00005  -0.00206   2.06045
    A7        2.06251  -0.00013  -0.00200  -0.00005  -0.00206   2.06045
    A8        2.06252  -0.00014  -0.00199  -0.00010  -0.00209   2.06043
    A9        2.06252  -0.00014  -0.00199  -0.00010  -0.00209   2.06043
   A10        1.98838   0.00033   0.00484   0.00018   0.00503   1.99342
   A11        2.06250  -0.00013  -0.00200  -0.00004  -0.00204   2.06046
   A12        2.06250  -0.00013  -0.00200  -0.00004  -0.00204   2.06046
   A13        2.06253  -0.00013  -0.00198  -0.00012  -0.00211   2.06042
   A14        2.06253  -0.00013  -0.00198  -0.00012  -0.00211   2.06042
   A15        1.98838   0.00033   0.00483   0.00019   0.00503   1.99341
    D1       -0.00003   0.00000  -0.00002   0.00007   0.00005   0.00002
    D2       -2.51284  -0.00021  -0.00314  -0.00012  -0.00324  -2.51608
    D3        2.51284   0.00021   0.00314   0.00012   0.00324   2.51608
    D4        0.00003   0.00000   0.00002  -0.00007  -0.00005  -0.00002
    D5        2.51278   0.00021   0.00310   0.00024   0.00333   2.51611
    D6       -0.00001   0.00000   0.00001  -0.00002  -0.00001  -0.00002
    D7        0.00001   0.00000  -0.00001   0.00002   0.00001   0.00002
    D8       -2.51278  -0.00021  -0.00310  -0.00024  -0.00333  -2.51611
    D9       -2.51287  -0.00021  -0.00315  -0.00001  -0.00314  -2.51601
   D10        0.00001   0.00000   0.00000  -0.00002  -0.00002  -0.00001
   D11       -0.00001   0.00000   0.00000   0.00002   0.00002   0.00001
   D12        2.51287   0.00021   0.00315   0.00001   0.00314   2.51601
         Item               Value     Threshold  Converged?
 Maximum Force            0.000460     0.000450     NO 
 RMS     Force            0.000251     0.000300     YES
 Maximum Displacement     0.003526     0.001800     NO 
 RMS     Displacement     0.001901     0.001200     NO 
 Predicted change in Energy=-7.929212D-06
 GradGradGradGradGradGradGradGradGradGradGradGradGradGradGradGradGradGrad

                          Input orientation:                          
 ---------------------------------------------------------------------
 Center     Atomic      Atomic             Coordinates (Angstroms)
 Number     Number       Type             X           Y           Z
 ---------------------------------------------------------------------
      1          6           0       -2.106602   -1.053741    0.000000
      2          6           0       -0.595780   -1.053633    0.000000
      3          6           0       -1.351269    0.254723    0.000000
      4          1           0       -2.620497   -1.350497   -0.917551
      5          1           0       -2.620497   -1.350497    0.917551
      6          1           0       -0.081828   -1.350293   -0.917548
      7          1           0       -0.081828   -1.350293    0.917548
      8          1           0       -1.351267    0.848151    0.917547
      9          1           0       -1.351267    0.848151   -0.917547
 ---------------------------------------------------------------------
                    Distance matrix (angstroms):
                    1          2          3          4          5
     1  C    0.000000
     2  C    1.510822   0.000000
     3  C    1.510829   1.510813   0.000000
     4  H    1.092727   2.242656   2.242670   0.000000
     5  H    1.092727   2.242656   2.242670   1.835101   0.000000
     6  H    2.242665   1.092725   2.242643   2.538669   3.132479
     7  H    2.242665   1.092725   2.242643   3.132479   2.538669
     8  H    2.242680   2.242640   1.092725   3.132503   2.538700
     9  H    2.242680   2.242640   1.092725   2.538700   3.132503
                    6          7          8          9
     6  H    0.000000
     7  H    1.835096   0.000000
     8  H    3.132443   2.538628   0.000000
     9  H    2.538628   3.132443   1.835093   0.000000
 Stoichiometry    C3H6
 Framework group  CS[SG(C3),X(H6)]
 Deg. of freedom    12
 Full point group                 CS      NOp   2
 Largest Abelian subgroup         CS      NOp   2
 Largest concise Abelian subgroup CS      NOp   2
                         Standard orientation:                         
 ---------------------------------------------------------------------
 Center     Atomic      Atomic             Coordinates (Angstroms)
 Number     Number       Type             X           Y           Z
 ---------------------------------------------------------------------
      1          6           0        0.755419    0.436140    0.000000
      2          6           0        0.000000   -0.872265    0.000000
      3          6           0       -0.755410    0.436136    0.000000
      4          1           0        1.269346    0.732841    0.917551
      5          1           0        1.269346    0.732841   -0.917551
      6          1           0       -0.000022   -1.465690    0.917548
      7          1           0       -0.000022   -1.465690   -0.917548
      8          1           0       -1.269353    0.732816   -0.917547
      9          1           0       -1.269353    0.732816    0.917547
 ---------------------------------------------------------------------
 Rotational constants (GHZ):          19.9902616          19.9896673          12.5151191
 Standard basis: CC-pVDZ (5D, 7F)
 There are    48 symmetry adapted cartesian basis functions of A'  symmetry.
 There are    27 symmetry adapted cartesian basis functions of A"  symmetry.
 There are    45 symmetry adapted basis functions of A'  symmetry.
 There are    27 symmetry adapted basis functions of A"  symmetry.
    72 basis functions,   141 primitive gaussians,    75 cartesian basis functions
    12 alpha electrons       12 beta electrons
       nuclear repulsion energy        75.3801504066 Hartrees.
 NAtoms=    9 NActive=    9 NUniq=    6 SFac= 2.25D+00 NAtFMM=   60 NAOKFM=F Big=F
 Integral buffers will be    131072 words long.
 Raffenetti 2 integral format.
 Two-electron integral symmetry is turned on.
 One-electron integrals computed using PRISM.
 NBasis=    72 RedAO= T EigKep=  5.91D-03  NBF=    45    27
 NBsUse=    72 1.00D-06 EigRej= -1.00D+00 NBFU=    45    27
 Initial guess from the checkpoint file:  "C3H6_opt.chk"
 B after Tr=     0.000000    0.000000    0.000000
         Rot=    0.866025    0.000000    0.000000    0.500001 Ang=  60.00 deg.
 Initial guess orbital symmetries:
       Occupied  (A') (A') (A') (A') (A') (A') (A") (A') (A") (A")
                 (A') (A')
       Virtual   (A') (A") (A') (A') (A') (A") (A") (A') (A') (A')
                 (A") (A') (A') (A') (A') (A') (A') (A") (A") (A")
                 (A") (A") (A') (A') (A') (A") (A') (A') (A") (A")
                 (A') (A") (A') (A') (A') (A') (A") (A") (A") (A')
                 (A') (A") (A") (A') (A') (A') (A') (A') (A") (A")
                 (A') (A') (A') (A") (A') (A") (A') (A') (A") (A")
 Keep R1 ints in memory in symmetry-blocked form, NReq=7047448.
 Requested convergence on RMS density matrix=1.00D-08 within 128 cycles.
 Requested convergence on MAX density matrix=1.00D-06.
 Requested convergence on             energy=1.00D-06.
 No special actions if energy rises.
 SCF Done:  E(RB3LYP) =  -117.897879245     A.U. after    6 cycles
            NFock=  6  Conv=0.36D-08     -V/T= 2.0090
 Calling FoFJK, ICntrl=      2127 FMM=F ISym2X=1 I1Cent= 0 IOpClX= 0 NMat=1 NMatS=1 NMatT=0.
 ***** Axes restored to original set *****
 -------------------------------------------------------------------
 Center     Atomic                   Forces (Hartrees/Bohr)
 Number     Number              X              Y              Z
 -------------------------------------------------------------------
      1        6           0.000075392    0.000044987    0.000000000
      2        6          -0.000067222    0.000038938    0.000000000
      3        6           0.000000034   -0.000083280    0.000000000
      4        1          -0.000034927   -0.000018483   -0.000087498
      5        1          -0.000034927   -0.000018483    0.000087498
      6        1           0.000034298   -0.000021718   -0.000089505
      7        1           0.000034298   -0.000021718    0.000089505
      8        1          -0.000003472    0.000039878    0.000088835
      9        1          -0.000003472    0.000039878   -0.000088835
 -------------------------------------------------------------------
 Cartesian Forces:  Max     0.000089505 RMS     0.000053548

 GradGradGradGradGradGradGradGradGradGradGradGradGradGradGradGradGradGrad
 Berny optimization.
 Using GEDIIS/GDIIS optimizer.
 FormGI is forming the generalized inverse of G from B-inverse, IUseBI=4.
 Internal  Forces:  Max     0.000097184 RMS     0.000039677
 Search for a local minimum.
 Step number   4 out of a maximum of   46
 All quantities printed in internal units (Hartrees-Bohrs-Radians)
 Mixed Optimization -- En-DIIS/RFO-DIIS
 Swapping is turned off.
 Update second derivatives using D2CorX and points    1    2    3    4
 DE= -8.39D-06 DEPred=-7.93D-06 R= 1.06D+00
 TightC=F SS=  1.41D+00  RLast= 1.42D-02 DXNew= 5.0454D-01 4.2721D-02
 Trust test= 1.06D+00 RLast= 1.42D-02 DXMaxT set to 3.00D-01
 ITU=  1  1  1  0
     Eigenvalues ---    0.02037   0.03122   0.03122   0.03123   0.03505
     Eigenvalues ---    0.03505   0.06273   0.10538   0.10538   0.16000
     Eigenvalues ---    0.16000   0.16000   0.28448   0.28452   0.30701
     Eigenvalues ---    0.33229   0.33230   0.33230   0.33232   0.33232
     Eigenvalues ---    0.36759
 En-DIIS/RFO-DIIS/Sim-DIIS IScMMF=       -3 using points:     4    3    2
 RFO step:  Lambda=-1.62990439D-07.
 DidBck=F Rises=F RFO-DIIS coefs:    1.17776   -0.22179    0.04403
 Iteration  1 RMS(Cart)=  0.00013025 RMS(Int)=  0.00000085
 Iteration  2 RMS(Cart)=  0.00000001 RMS(Int)=  0.00000085
 ClnCor:  largest displacement from symmetrization is 1.34D-11 for atom     5.
 Variable       Old X    -DE/DX   Delta X   Delta X   Delta X     New X
                                 (Linear)    (Quad)   (Total)
    R1        2.85504   0.00000   0.00002   0.00000   0.00001   2.85505
    R2        2.85505  -0.00001   0.00002  -0.00004  -0.00002   2.85503
    R3        2.06495   0.00009   0.00025   0.00001   0.00026   2.06522
    R4        2.06495   0.00009   0.00025   0.00001   0.00026   2.06522
    R5        2.85502   0.00000   0.00001   0.00003   0.00004   2.85506
    R6        2.06495   0.00010   0.00025   0.00002   0.00027   2.06522
    R7        2.06495   0.00010   0.00025   0.00002   0.00027   2.06522
    R8        2.06495   0.00010   0.00025   0.00001   0.00027   2.06522
    R9        2.06495   0.00010   0.00025   0.00001   0.00027   2.06522
    A1        2.06043  -0.00001  -0.00006   0.00002  -0.00004   2.06039
    A2        2.06043  -0.00001  -0.00006   0.00002  -0.00004   2.06039
    A3        2.06045  -0.00001  -0.00005  -0.00002  -0.00008   2.06037
    A4        2.06045  -0.00001  -0.00005  -0.00002  -0.00008   2.06037
    A5        1.99342   0.00001   0.00014   0.00000   0.00014   1.99356
    A6        2.06045   0.00000  -0.00006  -0.00002  -0.00007   2.06038
    A7        2.06045   0.00000  -0.00006  -0.00002  -0.00007   2.06038
    A8        2.06043   0.00000  -0.00006   0.00002  -0.00004   2.06039
    A9        2.06043   0.00000  -0.00006   0.00002  -0.00004   2.06039
   A10        1.99342   0.00001   0.00014   0.00000   0.00015   1.99356
   A11        2.06046  -0.00001  -0.00005  -0.00004  -0.00010   2.06037
   A12        2.06046  -0.00001  -0.00005  -0.00004  -0.00010   2.06037
   A13        2.06042   0.00000  -0.00007   0.00004  -0.00002   2.06040
   A14        2.06042   0.00000  -0.00007   0.00004  -0.00002   2.06040
   A15        1.99341   0.00001   0.00014   0.00000   0.00014   1.99356
    D1        0.00002   0.00000   0.00001  -0.00006  -0.00004  -0.00002
    D2       -2.51608  -0.00001  -0.00009   0.00000  -0.00009  -2.51617
    D3        2.51608   0.00001   0.00009   0.00000   0.00009   2.51617
    D4       -0.00002   0.00000  -0.00001   0.00006   0.00004   0.00002
    D5        2.51611   0.00000   0.00011  -0.00011   0.00000   2.51611
    D6       -0.00002   0.00000   0.00000   0.00003   0.00003   0.00001
    D7        0.00002   0.00000   0.00000  -0.00003  -0.00003  -0.00001
    D8       -2.51611   0.00000  -0.00011   0.00011   0.00000  -2.51611
    D9       -2.51601  -0.00001  -0.00007  -0.00012  -0.00019  -2.51620
   D10       -0.00001   0.00000   0.00000   0.00003   0.00003   0.00001
   D11        0.00001   0.00000   0.00000  -0.00003  -0.00003  -0.00001
   D12        2.51601   0.00001   0.00007   0.00012   0.00019   2.51620
         Item               Value     Threshold  Converged?
 Maximum Force            0.000097     0.000450     YES
 RMS     Force            0.000040     0.000300     YES
 Maximum Displacement     0.000307     0.001800     YES
 RMS     Displacement     0.000130     0.001200     YES
 Predicted change in Energy=-8.140607D-08
 Optimization completed.
    -- Stationary point found.
                           ----------------------------
                           !   Optimized Parameters   !
                           ! (Angstroms and Degrees)  !
 --------------------------                            --------------------------
 ! Name  Definition              Value          Derivative Info.                !
 --------------------------------------------------------------------------------
 ! R1    R(1,2)                  1.5108         -DE/DX =    0.0                 !
 ! R2    R(1,3)                  1.5108         -DE/DX =    0.0                 !
 ! R3    R(1,4)                  1.0927         -DE/DX =    0.0001              !
 ! R4    R(1,5)                  1.0927         -DE/DX =    0.0001              !
 ! R5    R(2,3)                  1.5108         -DE/DX =    0.0                 !
 ! R6    R(2,6)                  1.0927         -DE/DX =    0.0001              !
 ! R7    R(2,7)                  1.0927         -DE/DX =    0.0001              !
 ! R8    R(3,8)                  1.0927         -DE/DX =    0.0001              !
 ! R9    R(3,9)                  1.0927         -DE/DX =    0.0001              !
 ! A1    A(2,1,4)              118.0542         -DE/DX =    0.0                 !
 ! A2    A(2,1,5)              118.0542         -DE/DX =    0.0                 !
 ! A3    A(3,1,4)              118.0549         -DE/DX =    0.0                 !
 ! A4    A(3,1,5)              118.0549         -DE/DX =    0.0                 !
 ! A5    A(4,1,5)              114.2146         -DE/DX =    0.0                 !
 ! A6    A(1,2,6)              118.0551         -DE/DX =    0.0                 !
 ! A7    A(1,2,7)              118.0551         -DE/DX =    0.0                 !
 ! A8    A(3,2,6)              118.0538         -DE/DX =    0.0                 !
 ! A9    A(3,2,7)              118.0538         -DE/DX =    0.0                 !
 ! A10   A(6,2,7)              114.2143         -DE/DX =    0.0                 !
 ! A11   A(1,3,8)              118.0558         -DE/DX =    0.0                 !
 ! A12   A(1,3,9)              118.0558         -DE/DX =    0.0                 !
 ! A13   A(2,3,8)              118.0535         -DE/DX =    0.0                 !
 ! A14   A(2,3,9)              118.0535         -DE/DX =    0.0                 !
 ! A15   A(8,3,9)              114.214          -DE/DX =    0.0                 !
 ! D1    D(4,1,2,6)              0.0012         -DE/DX =    0.0                 !
 ! D2    D(4,1,2,7)           -144.1607         -DE/DX =    0.0                 !
 ! D3    D(5,1,2,6)            144.1607         -DE/DX =    0.0                 !
 ! D4    D(5,1,2,7)             -0.0012         -DE/DX =    0.0                 !
 ! D5    D(4,1,3,8)            144.1626         -DE/DX =    0.0                 !
 ! D6    D(4,1,3,9)             -0.001          -DE/DX =    0.0                 !
 ! D7    D(5,1,3,8)              0.001          -DE/DX =    0.0                 !
 ! D8    D(5,1,3,9)           -144.1626         -DE/DX =    0.0                 !
 ! D9    D(6,2,3,8)           -144.1569         -DE/DX =    0.0                 !
 ! D10   D(6,2,3,9)             -0.0008         -DE/DX =    0.0                 !
 ! D11   D(7,2,3,8)              0.0008         -DE/DX =    0.0                 !
 ! D12   D(7,2,3,9)            144.1569         -DE/DX =    0.0                 !
 --------------------------------------------------------------------------------
 GradGradGradGradGradGradGradGradGradGradGradGradGradGradGradGradGradGrad

                          Input orientation:                          
 ---------------------------------------------------------------------
 Center     Atomic      Atomic             Coordinates (Angstroms)
 Number     Number       Type             X           Y           Z
 ---------------------------------------------------------------------
      1          6           0       -2.106602   -1.053741    0.000000
      2          6           0       -0.595780   -1.053633    0.000000
      3          6           0       -1.351269    0.254723    0.000000
      4          1           0       -2.620497   -1.350497   -0.917551
      5          1           0       -2.620497   -1.350497    0.917551
      6          1           0       -0.081828   -1.350293   -0.917548
      7          1           0       -0.081828   -1.350293    0.917548
      8          1           0       -1.351267    0.848151    0.917547
      9          1           0       -1.351267    0.848151   -0.917547
 ---------------------------------------------------------------------
                    Distance matrix (angstroms):
                    1          2          3          4          5
     1  C    0.000000
     2  C    1.510822   0.000000
     3  C    1.510829   1.510813   0.000000
     4  H    1.092727   2.242656   2.242670   0.000000
     5  H    1.092727   2.242656   2.242670   1.835101   0.000000
     6  H    2.242665   1.092725   2.242643   2.538669   3.132479
     7  H    2.242665   1.092725   2.242643   3.132479   2.538669
     8  H    2.242680   2.242640   1.092725   3.132503   2.538700
     9  H    2.242680   2.242640   1.092725   2.538700   3.132503
                    6          7          8          9
     6  H    0.000000
     7  H    1.835096   0.000000
     8  H    3.132443   2.538628   0.000000
     9  H    2.538628   3.132443   1.835093   0.000000
 Stoichiometry    C3H6
 Framework group  CS[SG(C3),X(H6)]
 Deg. of freedom    12
 Full point group                 CS      NOp   2
 Largest Abelian subgroup         CS      NOp   2
 Largest concise Abelian subgroup CS      NOp   2
                         Standard orientation:                         
 ---------------------------------------------------------------------
 Center     Atomic      Atomic             Coordinates (Angstroms)
 Number     Number       Type             X           Y           Z
 ---------------------------------------------------------------------
      1          6           0        0.755419    0.436140    0.000000
      2          6           0        0.000000   -0.872265    0.000000
      3          6           0       -0.755410    0.436136    0.000000
      4          1           0        1.269346    0.732841    0.917551
      5          1           0        1.269346    0.732841   -0.917551
      6          1           0       -0.000022   -1.465690    0.917548
      7          1           0       -0.000022   -1.465690   -0.917548
      8          1           0       -1.269353    0.732816   -0.917547
      9          1           0       -1.269353    0.732816    0.917547
 ---------------------------------------------------------------------
 Rotational constants (GHZ):          19.9902616          19.9896673          12.5151191

 **********************************************************************

            Population analysis using the SCF density.

 **********************************************************************

 Orbital symmetries:
       Occupied  (A') (A') (A') (A') (A') (A') (A") (A') (A") (A")
                 (A') (A')
       Virtual   (A') (A") (A') (A') (A') (A") (A") (A') (A') (A')
                 (A") (A') (A') (A') (A') (A') (A') (A") (A") (A")
                 (A") (A") (A') (A') (A') (A") (A') (A') (A") (A")
                 (A') (A") (A') (A') (A') (A') (A") (A") (A") (A')
                 (A') (A") (A") (A') (A') (A') (A') (A') (A') (A")
                 (A") (A') (A') (A") (A') (A") (A') (A') (A") (A")
 The electronic state is 1-A'.
 Alpha  occ. eigenvalues --  -10.18753 -10.18724 -10.18723  -0.84674  -0.59342
 Alpha  occ. eigenvalues --   -0.59341  -0.48871  -0.46205  -0.36003  -0.36002
 Alpha  occ. eigenvalues --   -0.29344  -0.29344
 Alpha virt. eigenvalues --    0.06750   0.07768   0.11087   0.11088   0.14326
 Alpha virt. eigenvalues --    0.18069   0.18069   0.24435   0.24435   0.38086
 Alpha virt. eigenvalues --    0.39252   0.47884   0.47885   0.52878   0.55900
 Alpha virt. eigenvalues --    0.55900   0.61674   0.63625   0.63627   0.65881
 Alpha virt. eigenvalues --    0.66294   0.66295   0.68122   0.68122   0.79755
 Alpha virt. eigenvalues --    1.13297   1.17180   1.17181   1.19028   1.19030
 Alpha virt. eigenvalues --    1.19207   1.43580   1.45873   1.45875   1.55634
 Alpha virt. eigenvalues --    1.55634   1.58016   1.58016   1.60525   1.71625
 Alpha virt. eigenvalues --    1.72009   1.72563   1.72565   1.78197   1.78198
 Alpha virt. eigenvalues --    1.92357   1.92358   2.07607   2.08893   2.08959
 Alpha virt. eigenvalues --    2.08960   2.28919   2.28919   2.31063   2.35828
 Alpha virt. eigenvalues --    2.42053   2.57020   2.57022   2.75945   2.75946
          Condensed to atoms (all electrons):
               1          2          3          4          5          6
     1  C    4.630461   0.346739   0.346738   0.388615   0.388615  -0.014327
     2  C    0.346739   4.630459   0.346738  -0.014328  -0.014328   0.388616
     3  C    0.346738   0.346738   4.630463  -0.014327  -0.014327  -0.014329
     4  H    0.388615  -0.014328  -0.014327   0.675671  -0.045629  -0.010451
     5  H    0.388615  -0.014328  -0.014327  -0.045629   0.675671   0.004485
     6  H   -0.014327   0.388616  -0.014329  -0.010451   0.004485   0.675676
     7  H   -0.014327   0.388616  -0.014329   0.004485  -0.010451  -0.045630
     8  H   -0.014327  -0.014329   0.388616   0.004485  -0.010451   0.004485
     9  H   -0.014327  -0.014329   0.388616  -0.010451   0.004485  -0.010452
               7          8          9
     1  C   -0.014327  -0.014327  -0.014327
     2  C    0.388616  -0.014329  -0.014329
     3  C   -0.014329   0.388616   0.388616
     4  H    0.004485   0.004485  -0.010451
     5  H   -0.010451  -0.010451   0.004485
     6  H   -0.045630   0.004485  -0.010452
     7  H    0.675676  -0.010452   0.004485
     8  H   -0.010452   0.675674  -0.045630
     9  H    0.004485  -0.045630   0.675674
 Mulliken charges:
               1
     1  C   -0.043860
     2  C   -0.043855
     3  C   -0.043859
     4  H    0.021931
     5  H    0.021931
     6  H    0.021928
     7  H    0.021928
     8  H    0.021929
     9  H    0.021929
 Sum of Mulliken charges =   0.00000
 Mulliken charges with hydrogens summed into heavy atoms:
               1
     1  C    0.000002
     2  C    0.000000
     3  C   -0.000002
 Electronic spatial extent (au):  <R**2>=            157.4150
 Charge=              0.0000 electrons
 Dipole moment (field-independent basis, Debye):
    X=              0.0000    Y=             -0.0001    Z=              0.0000  Tot=              0.0001
 Quadrupole moment (field-independent basis, Debye-Ang):
   XX=            -20.6504   YY=            -20.6508   ZZ=            -18.4709
   XY=              0.0001   XZ=              0.0000   YZ=              0.0000
 Traceless Quadrupole moment (field-independent basis, Debye-Ang):
   XX=             -0.7264   YY=             -0.7267   ZZ=              1.4531
   XY=              0.0001   XZ=              0.0000   YZ=              0.0000
 Octapole moment (field-independent basis, Debye-Ang**2):
  XXX=             -0.0002  YYY=             -1.8939  ZZZ=              0.0000  XYY=              0.0000
  XXY=              1.8937  XXZ=              0.0000  XZZ=              0.0000  YZZ=             -0.0001
  YYZ=              0.0000  XYZ=              0.0000
 Hexadecapole moment (field-independent basis, Debye-Ang**3):
 XXXX=            -88.1871 YYYY=            -88.1860 ZZZZ=            -40.4851 XXXY=             -0.0003
 XXXZ=              0.0000 YYYX=             -0.0001 YYYZ=              0.0000 ZZZX=              0.0000
 ZZZY=              0.0000 XXYY=            -29.3956 XXZZ=            -19.6545 YYZZ=            -19.6545
 XXYZ=              0.0000 YYXZ=              0.0000 ZZXY=              0.0000
 N-N= 7.538015040660D+01 E-N=-4.229262494491D+02  KE= 1.168449019300D+02
 Symmetry A'   KE= 1.109764724573D+02
 Symmetry A"   KE= 5.868429472691D+00
 1\1\GINC-LSQC03\FOpt\RB3LYP\CC-pVDZ\C3H6\QINGCHUN\18-Jun-2020\0\\# opt
  freq b3lyp/cc-pVDZ\\Title Card Required\\0,1\C,-2.1066017758,-1.05374
 06907,0.\C,-0.5957802575,-1.0536331765,0.\C,-1.351268605,0.2547225033,
 0.\H,-2.6204972194,-1.3504968154,-0.917550731\H,-2.6204972194,-1.35049
 68154,0.917550731\H,-0.0818284038,-1.3502932391,-0.9175478294\H,-0.081
 8284038,-1.3502932391,0.9175478294\H,-1.3512671025,0.8481507565,0.9175
 465145\H,-1.3512671025,0.8481507565,-0.9175465145\\Version=ES64L-G16Re
 vA.03\State=1-A'\HF=-117.8978792\RMSD=3.561e-09\RMSF=5.355e-05\Dipole=
 0.0000243,0.0000024,0.\Quadrupole=-0.5401624,-0.5401992,1.0803616,0.00
 01585,0.,0.\PG=CS [SG(C3),X(H6)]\\@


 THE PROMISED LAND ALWAYS LIES ON THE OTHER SIDE OF A WILDERNESS.

                         -- HAVELOCK ELLIS
 Job cpu time:       0 days  0 hours  0 minutes 35.3 seconds.
 Elapsed time:       0 days  0 hours  0 minutes  9.0 seconds.
 File lengths (MBytes):  RWF=      6 Int=      0 D2E=      0 Chk=      2 Scr=      1
 Normal termination of Gaussian 16 at Thu Jun 18 09:19:51 2020.
 Link1:  Proceeding to internal job step number  2.
 -------------------------------------------------------------------
 #N Geom=AllCheck Guess=TCheck SCRF=Check GenChk RB3LYP/CC-pVDZ Freq
 -------------------------------------------------------------------
 1/10=4,29=7,30=1,38=1,40=1/1,3;
 2/12=2,40=1/2;
 3/5=16,11=2,14=-4,25=1,30=1,70=2,71=2,74=-5,116=1,140=1/1,2,3;
 4/5=101/1;
 5/5=2,38=6,98=1/2;
 8/6=4,10=90,11=11/1;
 11/6=1,8=1,9=11,15=111,16=1/1,2,10;
 10/6=1/2;
 6/7=2,8=2,9=2,10=2,28=1/1;
 7/8=1,10=1,25=1/1,2,3,16;
 1/10=4,30=1/3;
 99//99;
 Structure from the checkpoint file:  "C3H6_opt.chk"
 -------------------
 Title Card Required
 -------------------
 Charge =  0 Multiplicity = 1
 Redundant internal coordinates found in file.  (old form).
 C,0,-2.1066017758,-1.0537406907,0.
 C,0,-0.5957802575,-1.0536331765,0.
 C,0,-1.351268605,0.2547225033,0.
 H,0,-2.6204972194,-1.3504968154,-0.917550731
 H,0,-2.6204972194,-1.3504968154,0.917550731
 H,0,-0.0818284038,-1.3502932391,-0.9175478294
 H,0,-0.0818284038,-1.3502932391,0.9175478294
 H,0,-1.3512671025,0.8481507565,0.9175465145
 H,0,-1.3512671025,0.8481507565,-0.9175465145
 Recover connectivity data from disk.

 GradGradGradGradGradGradGradGradGradGradGradGradGradGradGradGradGradGrad
 Berny optimization.
 Initialization pass.
                           ----------------------------
                           !    Initial Parameters    !
                           ! (Angstroms and Degrees)  !
 --------------------------                            --------------------------
 ! Name  Definition              Value          Derivative Info.                !
 --------------------------------------------------------------------------------
 ! R1    R(1,2)                  1.5108         calculate D2E/DX2 analytically  !
 ! R2    R(1,3)                  1.5108         calculate D2E/DX2 analytically  !
 ! R3    R(1,4)                  1.0927         calculate D2E/DX2 analytically  !
 ! R4    R(1,5)                  1.0927         calculate D2E/DX2 analytically  !
 ! R5    R(2,3)                  1.5108         calculate D2E/DX2 analytically  !
 ! R6    R(2,6)                  1.0927         calculate D2E/DX2 analytically  !
 ! R7    R(2,7)                  1.0927         calculate D2E/DX2 analytically  !
 ! R8    R(3,8)                  1.0927         calculate D2E/DX2 analytically  !
 ! R9    R(3,9)                  1.0927         calculate D2E/DX2 analytically  !
 ! A1    A(2,1,4)              118.0542         calculate D2E/DX2 analytically  !
 ! A2    A(2,1,5)              118.0542         calculate D2E/DX2 analytically  !
 ! A3    A(3,1,4)              118.0549         calculate D2E/DX2 analytically  !
 ! A4    A(3,1,5)              118.0549         calculate D2E/DX2 analytically  !
 ! A5    A(4,1,5)              114.2146         calculate D2E/DX2 analytically  !
 ! A6    A(1,2,6)              118.0551         calculate D2E/DX2 analytically  !
 ! A7    A(1,2,7)              118.0551         calculate D2E/DX2 analytically  !
 ! A8    A(3,2,6)              118.0538         calculate D2E/DX2 analytically  !
 ! A9    A(3,2,7)              118.0538         calculate D2E/DX2 analytically  !
 ! A10   A(6,2,7)              114.2143         calculate D2E/DX2 analytically  !
 ! A11   A(1,3,8)              118.0558         calculate D2E/DX2 analytically  !
 ! A12   A(1,3,9)              118.0558         calculate D2E/DX2 analytically  !
 ! A13   A(2,3,8)              118.0535         calculate D2E/DX2 analytically  !
 ! A14   A(2,3,9)              118.0535         calculate D2E/DX2 analytically  !
 ! A15   A(8,3,9)              114.214          calculate D2E/DX2 analytically  !
 ! D1    D(4,1,2,6)              0.0012         calculate D2E/DX2 analytically  !
 ! D2    D(4,1,2,7)           -144.1607         calculate D2E/DX2 analytically  !
 ! D3    D(5,1,2,6)            144.1607         calculate D2E/DX2 analytically  !
 ! D4    D(5,1,2,7)             -0.0012         calculate D2E/DX2 analytically  !
 ! D5    D(4,1,3,8)            144.1626         calculate D2E/DX2 analytically  !
 ! D6    D(4,1,3,9)             -0.001          calculate D2E/DX2 analytically  !
 ! D7    D(5,1,3,8)              0.001          calculate D2E/DX2 analytically  !
 ! D8    D(5,1,3,9)           -144.1626         calculate D2E/DX2 analytically  !
 ! D9    D(6,2,3,8)           -144.1569         calculate D2E/DX2 analytically  !
 ! D10   D(6,2,3,9)             -0.0008         calculate D2E/DX2 analytically  !
 ! D11   D(7,2,3,8)              0.0008         calculate D2E/DX2 analytically  !
 ! D12   D(7,2,3,9)            144.1569         calculate D2E/DX2 analytically  !
 --------------------------------------------------------------------------------
 Trust Radius=3.00D-01 FncErr=1.00D-07 GrdErr=1.00D-07 EigMax=2.50D+02 EigMin=1.00D-04
 Number of steps in this run=      2 maximum allowed number of steps=      2.
 GradGradGradGradGradGradGradGradGradGradGradGradGradGradGradGradGradGrad

                          Input orientation:                          
 ---------------------------------------------------------------------
 Center     Atomic      Atomic             Coordinates (Angstroms)
 Number     Number       Type             X           Y           Z
 ---------------------------------------------------------------------
      1          6           0       -2.106602   -1.053741    0.000000
      2          6           0       -0.595780   -1.053633    0.000000
      3          6           0       -1.351269    0.254723    0.000000
      4          1           0       -2.620497   -1.350497   -0.917551
      5          1           0       -2.620497   -1.350497    0.917551
      6          1           0       -0.081828   -1.350293   -0.917548
      7          1           0       -0.081828   -1.350293    0.917548
      8          1           0       -1.351267    0.848151    0.917547
      9          1           0       -1.351267    0.848151   -0.917547
 ---------------------------------------------------------------------
                    Distance matrix (angstroms):
                    1          2          3          4          5
     1  C    0.000000
     2  C    1.510822   0.000000
     3  C    1.510829   1.510813   0.000000
     4  H    1.092727   2.242656   2.242670   0.000000
     5  H    1.092727   2.242656   2.242670   1.835101   0.000000
     6  H    2.242665   1.092725   2.242643   2.538669   3.132479
     7  H    2.242665   1.092725   2.242643   3.132479   2.538669
     8  H    2.242680   2.242640   1.092725   3.132503   2.538700
     9  H    2.242680   2.242640   1.092725   2.538700   3.132503
                    6          7          8          9
     6  H    0.000000
     7  H    1.835096   0.000000
     8  H    3.132443   2.538628   0.000000
     9  H    2.538628   3.132443   1.835093   0.000000
 Stoichiometry    C3H6
 Framework group  CS[SG(C3),X(H6)]
 Deg. of freedom    12
 Full point group                 CS      NOp   2
 Largest Abelian subgroup         CS      NOp   2
 Largest concise Abelian subgroup CS      NOp   2
                         Standard orientation:                         
 ---------------------------------------------------------------------
 Center     Atomic      Atomic             Coordinates (Angstroms)
 Number     Number       Type             X           Y           Z
 ---------------------------------------------------------------------
      1          6           0        0.755419    0.436140    0.000000
      2          6           0        0.000000   -0.872265    0.000000
      3          6           0       -0.755410    0.436136    0.000000
      4          1           0        1.269346    0.732841    0.917551
      5          1           0        1.269346    0.732841   -0.917551
      6          1           0       -0.000022   -1.465690    0.917548
      7          1           0       -0.000022   -1.465690   -0.917548
[...]
                             4639.96
 
 Zero-point correction=                           0.080588 (Hartree/Particle)
 Thermal correction to Energy=                    0.083980
 Thermal correction to Enthalpy=                  0.084924
 Thermal correction to Gibbs Free Energy=         0.056283
 Sum of electronic and zero-point Energies=           -117.817292
 Sum of electronic and thermal Energies=              -117.813899
 Sum of electronic and thermal Enthalpies=            -117.812955
 Sum of electronic and thermal Free Energies=         -117.841597
 
                     E (Thermal)             CV                S
                      KCal/Mol        Cal/Mol-Kelvin    Cal/Mol-Kelvin
 Total                   52.698             11.204             60.282
 Electronic               0.000              0.000              0.000
 Translational            0.889              2.981             37.135
 Rotational               0.889              2.981             21.691
 Vibrational             50.921              5.243              1.456
                       Q            Log10(Q)             Ln(Q)
 Total Bot       0.129365D-25        -25.888184        -59.609747
 Total V=0       0.151169D+12         11.179461         25.741661
 Vib (Bot)       0.983607D-37        -37.007178        -85.212177
 Vib (V=0)       0.114939D+01          0.060467          0.139231
 Electronic      0.100000D+01          0.000000          0.000000
 Translational   0.107166D+08          7.030056         16.187301
 Rotational      0.122727D+05          4.088938          9.415129
 ***** Axes restored to original set *****
 -------------------------------------------------------------------
 Center     Atomic                   Forces (Hartrees/Bohr)
 Number     Number              X              Y              Z
 -------------------------------------------------------------------
      1        6           0.000075383    0.000045007    0.000000000
      2        6          -0.000067220    0.000038948    0.000000000
      3        6           0.000000022   -0.000083279    0.000000000
      4        1          -0.000034926   -0.000018484   -0.000087497
      5        1          -0.000034926   -0.000018484    0.000087497
      6        1           0.000034305   -0.000021723   -0.000089516
      7        1           0.000034305   -0.000021723    0.000089516
      8        1          -0.000003471    0.000039869    0.000088823
      9        1          -0.000003471    0.000039869   -0.000088823
 -------------------------------------------------------------------
 Cartesian Forces:  Max     0.000089516 RMS     0.000053548
 FormGI is forming the generalized inverse of G from B-inverse, IUseBI=4.

 GradGradGradGradGradGradGradGradGradGradGradGradGradGradGradGradGradGrad
 Berny optimization.
 Internal  Forces:  Max     0.000097198 RMS     0.000039677
 Search for a local minimum.
 Step number   1 out of a maximum of    2
 All quantities printed in internal units (Hartrees-Bohrs-Radians)
 Second derivative matrix not updated -- analytic derivatives used.
 ITU=  0
     Eigenvalues ---    0.01559   0.01559   0.02762   0.03062   0.03392
     Eigenvalues ---    0.03393   0.05746   0.05747   0.06220   0.08334
     Eigenvalues ---    0.16107   0.16108   0.26346   0.26347   0.27645
     Eigenvalues ---    0.35219   0.35222   0.35498   0.35604   0.35651
     Eigenvalues ---    0.35654
 Angle between quadratic step and forces=  24.58 degrees.
 Linear search not attempted -- first point.
 Iteration  1 RMS(Cart)=  0.00012616 RMS(Int)=  0.00000001
 Iteration  2 RMS(Cart)=  0.00000001 RMS(Int)=  0.00000000
 ClnCor:  largest displacement from symmetrization is 5.88D-09 for atom     5.
 Variable       Old X    -DE/DX   Delta X   Delta X   Delta X     New X
                                 (Linear)    (Quad)   (Total)
    R1        2.85504   0.00000   0.00000   0.00001   0.00001   2.85505
    R2        2.85505  -0.00001   0.00000  -0.00001  -0.00001   2.85504
    R3        2.06495   0.00009   0.00000   0.00026   0.00026   2.06522
    R4        2.06495   0.00009   0.00000   0.00026   0.00026   2.06522
    R5        2.85502   0.00000   0.00000   0.00002   0.00002   2.85505
    R6        2.06495   0.00010   0.00000   0.00027   0.00027   2.06522
    R7        2.06495   0.00010   0.00000   0.00027   0.00027   2.06522
    R8        2.06495   0.00010   0.00000   0.00027   0.00027   2.06522
    R9        2.06495   0.00010   0.00000   0.00027   0.00027   2.06522
    A1        2.06043  -0.00001   0.00000  -0.00005  -0.00005   2.06039
    A2        2.06043  -0.00001   0.00000  -0.00005  -0.00005   2.06039
    A3        2.06045  -0.00001   0.00000  -0.00007  -0.00007   2.06038
    A4        2.06045  -0.00001   0.00000  -0.00007  -0.00007   2.06038
    A5        1.99342   0.00001   0.00000   0.00013   0.00013   1.99355
    A6        2.06045   0.00000   0.00000  -0.00007  -0.00007   2.06038
    A7        2.06045   0.00000   0.00000  -0.00007  -0.00007   2.06038
    A8        2.06043   0.00000   0.00000  -0.00005  -0.00005   2.06038
    A9        2.06043   0.00000   0.00000  -0.00005  -0.00005   2.06038
   A10        1.99342   0.00001   0.00000   0.00015   0.00015   1.99356
   A11        2.06046  -0.00001   0.00000  -0.00008  -0.00008   2.06038
   A12        2.06046  -0.00001   0.00000  -0.00008  -0.00008   2.06038
   A13        2.06042   0.00000   0.00000  -0.00004  -0.00004   2.06039
   A14        2.06042   0.00000   0.00000  -0.00004  -0.00004   2.06039
   A15        1.99341   0.00001   0.00000   0.00014   0.00014   1.99355
    D1        0.00002   0.00000   0.00000  -0.00002  -0.00002   0.00000
    D2       -2.51608  -0.00001   0.00000  -0.00009  -0.00009  -2.51617
    D3        2.51608   0.00001   0.00000   0.00009   0.00009   2.51617
    D4       -0.00002   0.00000   0.00000   0.00002   0.00002   0.00000
    D5        2.51611   0.00000   0.00000   0.00003   0.00003   2.51615
    D6       -0.00002   0.00000   0.00000   0.00002   0.00002   0.00000
    D7        0.00002   0.00000   0.00000  -0.00002  -0.00002   0.00000
    D8       -2.51611   0.00000   0.00000  -0.00003  -0.00003  -2.51615
    D9       -2.51601  -0.00001   0.00000  -0.00015  -0.00015  -2.51617
   D10       -0.00001   0.00000   0.00000   0.00002   0.00002   0.00000
   D11        0.00001   0.00000   0.00000  -0.00002  -0.00002   0.00000
   D12        2.51601   0.00001   0.00000   0.00015   0.00015   2.51617
         Item               Value     Threshold  Converged?
 Maximum Force            0.000097     0.000450     YES
 RMS     Force            0.000040     0.000300     YES
 Maximum Displacement     0.000307     0.001800     YES
 RMS     Displacement     0.000126     0.001200     YES
 Predicted change in Energy=-8.340130D-08
 Optimization completed.
    -- Stationary point found.
                           ----------------------------
                           !   Optimized Parameters   !
                           ! (Angstroms and Degrees)  !
 --------------------------                            --------------------------
 ! Name  Definition              Value          Derivative Info.                !
 --------------------------------------------------------------------------------
 ! R1    R(1,2)                  1.5108         -DE/DX =    0.0                 !
 ! R2    R(1,3)                  1.5108         -DE/DX =    0.0                 !
 ! R3    R(1,4)                  1.0927         -DE/DX =    0.0001              !
 ! R4    R(1,5)                  1.0927         -DE/DX =    0.0001              !
 ! R5    R(2,3)                  1.5108         -DE/DX =    0.0                 !
 ! R6    R(2,6)                  1.0927         -DE/DX =    0.0001              !
 ! R7    R(2,7)                  1.0927         -DE/DX =    0.0001              !
 ! R8    R(3,8)                  1.0927         -DE/DX =    0.0001              !
 ! R9    R(3,9)                  1.0927         -DE/DX =    0.0001              !
 ! A1    A(2,1,4)              118.0542         -DE/DX =    0.0                 !
 ! A2    A(2,1,5)              118.0542         -DE/DX =    0.0                 !
 ! A3    A(3,1,4)              118.0549         -DE/DX =    0.0                 !
 ! A4    A(3,1,5)              118.0549         -DE/DX =    0.0                 !
 ! A5    A(4,1,5)              114.2146         -DE/DX =    0.0                 !
 ! A6    A(1,2,6)              118.0551         -DE/DX =    0.0                 !
 ! A7    A(1,2,7)              118.0551         -DE/DX =    0.0                 !
 ! A8    A(3,2,6)              118.0538         -DE/DX =    0.0                 !
 ! A9    A(3,2,7)              118.0538         -DE/DX =    0.0                 !
 ! A10   A(6,2,7)              114.2143         -DE/DX =    0.0                 !
 ! A11   A(1,3,8)              118.0558         -DE/DX =    0.0                 !
 ! A12   A(1,3,9)              118.0558         -DE/DX =    0.0                 !
 ! A13   A(2,3,8)              118.0535         -DE/DX =    0.0                 !
 ! A14   A(2,3,9)              118.0535         -DE/DX =    0.0                 !
 ! A15   A(8,3,9)              114.214          -DE/DX =    0.0                 !
 ! D1    D(4,1,2,6)              0.0012         -DE/DX =    0.0                 !
 ! D2    D(4,1,2,7)           -144.1607         -DE/DX =    0.0                 !
 ! D3    D(5,1,2,6)            144.1607         -DE/DX =    0.0                 !
 ! D4    D(5,1,2,7)             -0.0012         -DE/DX =    0.0                 !
 ! D5    D(4,1,3,8)            144.1626         -DE/DX =    0.0                 !
 ! D6    D(4,1,3,9)             -0.001          -DE/DX =    0.0                 !
 ! D7    D(5,1,3,8)              0.001          -DE/DX =    0.0                 !
 ! D8    D(5,1,3,9)           -144.1626         -DE/DX =    0.0                 !
 ! D9    D(6,2,3,8)           -144.1569         -DE/DX =    0.0                 !
 ! D10   D(6,2,3,9)             -0.0008         -DE/DX =    0.0                 !
 ! D11   D(7,2,3,8)              0.0008         -DE/DX =    0.0                 !
 ! D12   D(7,2,3,9)            144.1569         -DE/DX =    0.0                 !
 --------------------------------------------------------------------------------
 GradGradGradGradGradGradGradGradGradGradGradGradGradGradGradGradGradGrad


 ----------------------------------------------------------------------

 Electric dipole moment (input orientation):
 (Debye = 10**-18 statcoulomb cm , SI units = C m)
                  (au)            (Debye)         (10**-30 SI)
   Tot        0.241195D-04      0.613056D-04      0.204494D-03
   x          0.241195D-04      0.613056D-04      0.204494D-03
   y          0.000000D+00      0.000000D+00      0.000000D+00
   z          0.000000D+00      0.000000D+00      0.000000D+00

 Dipole polarizability, Alpha (input orientation).
 (esu units = cm**3 , SI units = C**2 m**2 J**-1)
 Alpha(0;0):
               (au)            (10**-24 esu)      (10**-40 SI)
   iso        0.315986D+02      0.468242D+01      0.520990D+01
   aniso      0.139067D+01      0.206076D+00      0.229291D+00
   xx         0.320622D+02      0.475112D+01      0.528634D+01
   yx         0.201194D-03      0.298139D-04      0.331724D-04
   yy         0.320620D+02      0.475110D+01      0.528632D+01
   zx         0.000000D+00      0.000000D+00      0.000000D+00
   zy         0.000000D+00      0.000000D+00      0.000000D+00
   zz         0.306714D+02      0.454504D+01      0.505704D+01

 ----------------------------------------------------------------------

 Dipole orientation:
     6          0.16991836         -1.53043034         -4.17632375
     6          0.20466128         -1.84335482         -1.33869828
     6         -0.08388625          0.75555146         -2.48481621
     1          1.94292785         -1.78654680         -5.20339680
     1         -1.50373309         -2.16921758         -5.20339680
     1          2.00129699         -2.31231897         -0.43526341
     1         -1.44535305         -2.69498854         -0.43526341
     1         -1.93019969          1.67197826         -2.36106674
     1          1.51644541          2.05464728         -2.36106674

 Electric dipole moment (dipole orientation):
 (Debye = 10**-18 statcoulomb cm , SI units = C m)
                  (au)            (Debye)         (10**-30 SI)
   Tot        0.242677D-04      0.616823D-04      0.205750D-03
   x          0.000000D+00      0.000000D+00      0.000000D+00
   y          0.000000D+00      0.000000D+00      0.000000D+00
   z          0.242677D-04      0.616823D-04      0.205750D-03

 Dipole polarizability, Alpha (dipole orientation).
 (esu units = cm**3 , SI units = C**2 m**2 J**-1)
 Alpha(0;0):
               (au)            (10**-24 esu)      (10**-40 SI)
   iso        0.315986D+02      0.468242D+01      0.520990D+01
   aniso      0.139067D+01      0.206076D+00      0.229291D+00
   xx         0.306884D+02      0.454755D+01      0.505983D+01
   yx        -0.152509D+00     -0.225995D-01     -0.251453D-01
   yy         0.320451D+02      0.474859D+01      0.528352D+01
   zx        -0.199736D-04     -0.295978D-05     -0.329320D-05
   zy         0.179902D-03      0.266587D-04      0.296618D-04
   zz         0.320622D+02      0.475113D+01      0.528635D+01

 ----------------------------------------------------------------------
 1\1\GINC-LSQC03\Freq\RB3LYP\CC-pVDZ\C3H6\QINGCHUN\18-Jun-2020\0\\#N Ge
 om=AllCheck Guess=TCheck SCRF=Check GenChk RB3LYP/CC-pVDZ Freq\\Title 
 Card Required\\0,1\C,-2.1066017758,-1.0537406907,0.\C,-0.5957802575,-1
 .0536331765,0.\C,-1.351268605,0.2547225033,0.\H,-2.6204972194,-1.35049
 68154,-0.917550731\H,-2.6204972194,-1.3504968154,0.917550731\H,-0.0818
 284038,-1.3502932391,-0.9175478294\H,-0.0818284038,-1.3502932391,0.917
 5478294\H,-1.3512671025,0.8481507565,0.9175465145\H,-1.3512671025,0.84
 81507565,-0.9175465145\\Version=ES64L-G16RevA.03\State=1-A'\HF=-117.89
 78792\RMSD=1.347e-09\RMSF=5.355e-05\ZeroPoint=0.0805875\Thermal=0.0839
 802\Dipole=0.0000241,0.0000027,0.\DipoleDeriv=-0.0826497,-0.1068569,0.
 ,-0.1068508,0.0407041,0.,0.,0.,0.1068903,-0.0826726,0.1068414,0.,0.106
 8464,0.0407125,0.,0.,0.,0.1069145,0.1023937,0.0000377,0.,0.0000238,-0.
 1443581,0.,0.,0.,0.1068953,-0.0206045,-0.0538771,-0.0412969,-0.0538828
 ,0.0415882,-0.0238497,-0.0739773,-0.0427155,-0.0534472,-0.0206045,-0.0
 538771,0.0412969,-0.0538828,0.0415882,0.0238497,0.0739773,0.0427155,-0
 .0534472,-0.0206317,0.0538732,0.0413015,0.0538665,0.0416031,-0.0238366
 ,0.0739876,-0.0427108,-0.0534524,-0.0206317,0.0538732,-0.0413015,0.053
 8665,0.0416031,0.0238366,-0.0739876,0.0427108,-0.0534524,0.0727004,-0.
 0000072,-0.0000052,0.0000066,-0.0517205,-0.047691,0.0000074,-0.0854267
 ,-0.0534504,0.0727004,-0.0000072,0.0000052,0.0000066,-0.0517205,0.0476
 91,-0.0000074,0.0854267,-0.0534504\Polar=32.0621784,0.0002012,32.06203
 9,0.,0.,30.6714387\Quadrupole=-0.5401624,-0.5401992,1.0803616,0.000158
 4,0.,0.\PG=CS [SG(C3),X(H6)]\NImag=0\\0.51992567,0.17609076,0.31665179
 ,0.,0.,0.65593142,-0.22514922,-0.02641788,0.,0.52005366,0.02638256,-0.
 01278291,0.,-0.17607686,0.31666841,0.,0.,-0.07237416,0.,0.,0.65600113,
 -0.06586037,-0.06553852,0.,-0.06588777,0.06556373,0.,0.21497742,-0.118
 34229,-0.17205485,0.,0.11836716,-0.17205644,0.,-0.00002153,0.62161774,
 0.,0.,-0.07237116,0.,0.,-0.07237245,0.,0.,0.65593280,-0.10187314,-0.03
 971000,-0.10889506,-0.01154224,-0.00786374,-0.02265587,-0.00424974,-0.
 00004421,0.00092918,0.11095845,-0.03970729,-0.05604202,-0.06288228,0.0
 0416266,0.00031469,0.01414521,-0.01207071,-0.00697483,-0.02669223,0.04
 383240,0.06036587,-0.11257657,-0.06500862,-0.25986525,0.00296447,0.001
 24812,0.00213641,0.00256293,0.00194415,0.00213562,0.11873266,0.0685634
 1,0.26773723,-0.10187314,-0.03971000,0.10889506,-0.01154224,-0.0078637
 4,0.02265587,-0.00424974,-0.00004421,-0.00092918,0.00756084,0.00487750
 ,-0.01210304,0.11095845,-0.03970729,-0.05604202,0.06288228,0.00416266,
 0.00031469,-0.01414521,-0.01207071,-0.00697483,0.02669223,0.00487750,0
 .00193034,-0.00698869,0.04383240,0.06036587,0.11257657,0.06500862,-0.2
 5986525,-0.00296447,-0.00124811,0.00213641,-0.00256293,-0.00194415,0.0
 0213562,0.01210304,0.00698869,-0.01590441,-0.11873266,-0.06856341,0.26
 773723,-0.01153805,0.00786312,0.02265072,-0.10191842,0.03970476,0.1089
 2175,-0.00425385,0.00004354,-0.00092342,0.00214844,-0.00195989,0.00017
 252,-0.00352208,0.00320095,-0.00034853,0.11100273,-0.00416409,0.000312
 30,0.01414890,0.03970412,-0.05604884,-0.06287058,0.01207170,-0.0069726
 4,-0.02669133,0.00196296,0.00005090,-0.00048520,-0.00320171,0.00109966
 ,-0.00006709,-0.04383007,0.06037006,-0.00296502,0.00124824,0.00213619,
 0.11260321,-0.06499663,-0.25989969,-0.00256351,0.00194307,0.00213558,-
 0.00017249,-0.00048453,0.00125399,-0.00034838,0.00006685,0.00062627,-0
 .11875913,0.06855001,0.26777127,-0.01153805,0.00786312,-0.02265072,-0.
 10191842,0.03970476,-0.10892175,-0.00425385,0.00004354,0.00092342,-0.0
 0352208,0.00320095,0.00034853,0.00214844,-0.00195989,-0.00017252,0.007
 56304,-0.00487643,0.01210413,0.11100273,-0.00416409,0.00031230,-0.0141
 4890,0.03970412,-0.05604884,0.06287058,0.01207170,-0.00697264,0.026691
 33,-0.00320171,0.00109966,0.00006709,0.00196296,0.00005090,0.00048520,
 -0.00487643,0.00192989,-0.00698696,-0.04383007,0.06037006,0.00296502,-
 0.00124824,0.00213619,-0.11260321,0.06499663,-0.25989969,0.00256351,-0
 .00194307,0.00213558,0.00034838,-0.00006685,0.00062627,0.00017249,0.00
 048453,0.00125399,-0.01210413,0.00698696,-0.01590404,0.11875913,-0.068
 55001,0.26777127,-0.00104686,-0.01022031,-0.02357907,-0.00104768,0.010
 22426,0.02357978,-0.03311104,-0.00000099,-0.00000029,-0.00005564,-0.00
 520243,0.00023226,0.00057511,0.00286680,0.00033375,-0.00005609,0.00520
 270,-0.00023196,0.00057428,-0.00286917,-0.00033317,0.03505390,0.001805
 87,-0.01017729,-0.01254369,-0.00180300,-0.01018038,-0.01254559,-0.0000
 0283,-0.12480576,-0.12574877,0.00120022,-0.00236687,0.00026821,-0.0010
 5343,0.00162227,-0.00039155,-0.00119977,-0.00236656,0.00026818,0.00105
 379,0.00162523,-0.00039179,-0.00000040,0.13627208,0.00040186,0.0031919
 8,0.00213600,-0.00040170,0.00319114,0.00213602,0.00000050,-0.13000028,
 -0.25986580,0.00011612,0.00033530,0.00062628,0.00050595,-0.00009328,0.
 00125385,-0.00011622,0.00033521,0.00062628,-0.00050643,-0.00009313,0.0
 0125415,-0.00000069,0.13710903,0.26773813,-0.00104686,-0.01022031,0.02
 357907,-0.00104768,0.01022426,-0.02357978,-0.03311104,-0.00000099,0.00
 000029,0.00057511,0.00286680,-0.00033375,-0.00005564,-0.00520243,-0.00
 023226,0.00057428,-0.00286917,0.00033317,-0.00005609,0.00520270,0.0002
 3196,-0.00088598,-0.00000046,0.00000062,0.03505390,0.00180587,-0.01017
 729,0.01254369,-0.00180300,-0.01018038,0.01254559,-0.00000283,-0.12480
 576,0.12574877,-0.00105343,0.00162227,0.00039155,0.00120022,-0.0023668
 7,-0.00026821,0.00105379,0.00162523,0.00039179,-0.00119977,-0.00236656
 ,-0.00026818,-0.00000046,0.01037728,-0.01397597,-0.00000040,0.13627208
 ,-0.00040186,-0.00319198,0.00213600,0.00040170,-0.00319114,0.00213602,
 -0.00000050,0.13000028,-0.25986580,-0.00050595,0.00009328,0.00125385,-
 0.00011612,-0.00033530,0.00062628,0.00050643,0.00009313,0.00125415,0.0
 0011622,-0.00033521,0.00062628,-0.00000062,0.01397597,-0.01590492,0.00
 000069,-0.13710903,0.26773813\\-0.00007538,-0.00004501,0.,0.00006722,-
 0.00003895,0.,-0.00000002,0.00008328,0.,0.00003493,0.00001848,0.000087
 50,0.00003493,0.00001848,-0.00008750,-0.00003430,0.00002172,0.00008952
 ,-0.00003430,0.00002172,-0.00008952,0.00000347,-0.00003987,-0.00008882
 ,0.00000347,-0.00003987,0.00008882\\\@


 IN NATURE THERE ARE NEITHER REWARDS OR
 PUNISHMENTS -- THERE ARE CONSEQUENCES.

                            -- ROBERT GREEN INGERSOLL
 Job cpu time:       0 days  0 hours  1 minutes  1.5 seconds.
 Elapsed time:       0 days  0 hours  0 minutes 15.5 seconds.
 File lengths (MBytes):  RWF=      7 Int=      0 D2E=      0 Chk=      2 Scr=      1
 Normal termination of Gaussian 16 at Thu Jun 18 09:20:06 2020.
