 Entering Gaussian System, Link 0=g16
 Input=C60-opt.gjf
 Output=C60-opt.log
 Initial command:
 /opt/g16/l1.exe "/scratch/qingchun/gaussian/Gau-325279.inp" -scrdir="/scratch/qingchun/gaussian/"
 Entering Link 1 = /opt/g16/l1.exe PID=    325280.
  
 Copyright (c) 1988,1990,1992,1993,1995,1998,2003,2009,2016,
            Gaussian, Inc.  All Rights Reserved.
  
 This is part of the Gaussian(R) 16 program.  It is based on
 the Gaussian(R) 09 system (copyright 2009, Gaussian, Inc.),
 the Gaussian(R) 03 system (copyright 2003, Gaussian, Inc.),
 the Gaussian(R) 98 system (copyright 1998, Gaussian, Inc.),
 the Gaussian(R) 94 system (copyright 1995, Gaussian, Inc.),
 the Gaussian 92(TM) system (copyright 1992, Gaussian, Inc.),
 the Gaussian 90(TM) system (copyright 1990, Gaussian, Inc.),
 the Gaussian 88(TM) system (copyright 1988, Gaussian, Inc.),
 the Gaussian 86(TM) system (copyright 1986, Carnegie Mellon
 University), and the Gaussian 82(TM) system (copyright 1983,
 Carnegie Mellon University). Gaussian is a federally registered
 trademark of Gaussian, Inc.
  
 This software contains proprietary and confidential information,
 including trade secrets, belonging to Gaussian, Inc.
  
 This software is provided under written license and may be
 used, copied, transmitted, or stored only in accord with that
 written license.
  
 The following legend is applicable only to US Government
 contracts under FAR:
  
                    RESTRICTED RIGHTS LEGEND
  
 Use, reproduction and disclosure by the US Government is
 subject to restrictions as set forth in subparagraphs (a)
 and (c) of the Commercial Computer Software - Restricted
 Rights clause in FAR 52.227-19.
  
 Gaussian, Inc.
 340 Quinnipiac St., Bldg. 40, Wallingford CT 06492
  
  
 ---------------------------------------------------------------
 Warning -- This program may not be used in any manner that
 competes with the business of Gaussian, Inc. or will provide
 assistance to any competitor of Gaussian, Inc.  The licensee
 of this program is prohibited from giving any competitor of
 Gaussian, Inc. access to this program.  By using this program,
 the user acknowledges that Gaussian, Inc. is engaged in the
 business of creating and licensing software in the field of
 computational chemistry and represents and warrants to the
 licensee that it is not a competitor of Gaussian, Inc. and that
 it will not use this program in any manner prohibited above.
 ---------------------------------------------------------------
  

 Cite this work as:
 Gaussian 16, Revision A.03,
 M. J. Frisch, G. W. Trucks, H. B. Schlegel, G. E. Scuseria, 
 M. A. Robb, J. R. Cheeseman, G. Scalmani, V. Barone, 
 G. A. Petersson, H. Nakatsuji, X. Li, M. Caricato, A. V. Marenich, 
 J. Bloino, B. G. Janesko, R. Gomperts, B. Mennucci, H. P. Hratchian, 
 J. V. Ortiz, A. F. Izmaylov, J. L. Sonnenberg, D. Williams-Young, 
 F. Ding, F. Lipparini, F. Egidi, J. Goings, B. Peng, A. Petrone, 
 T. Henderson, D. Ranasinghe, V. G. Zakrzewski, J. Gao, N. Rega, 
 G. Zheng, W. Liang, M. Hada, M. Ehara, K. Toyota, R. Fukuda, 
 J. Hasegawa, M. Ishida, T. Nakajima, Y. Honda, O. Kitao, H. Nakai, 
 T. Vreven, K. Throssell, J. A. Montgomery, Jr., J. E. Peralta, 
 F. Ogliaro, M. J. Bearpark, J. J. Heyd, E. N. Brothers, K. N. Kudin, 
 V. N. Staroverov, T. A. Keith, R. Kobayashi, J. Normand, 
 K. Raghavachari, A. P. Rendell, J. C. Burant, S. S. Iyengar, 
 J. Tomasi, M. Cossi, J. M. Millam, M. Klene, C. Adamo, R. Cammi, 
 J. W. Ochterski, R. L. Martin, K. Morokuma, O. Farkas, 
 J. B. Foresman, and D. J. Fox, Gaussian, Inc., Wallingford CT, 2016.
 
 ******************************************
 Gaussian 16:  ES64L-G16RevA.03 25-Dec-2016
                28-Jan-2020 
 ******************************************
 %nprocshared=24
 Will use up to   24 processors via shared memory.
 %mem=100GB
 %chk=C60-opt.chk
 ----------------------------------
 # opt(z-matrix) freq b3lyp/cc-pVDZ
 ----------------------------------
 1/10=7,18=40,26=3,38=1/1,3;
 2/12=2,17=6,18=5,29=3,40=1/2;
 3/5=16,11=2,25=1,30=1,71=1,74=-5/1,2,3;
 4//1;
 5/5=2,38=5/2;
 6/7=2,8=2,9=2,10=2,28=1/1;
 7/29=1/1,2,3,16;
 1/10=7,18=40,26=3/3(2);
 2/29=3/2;
 99//99;
 2/29=3/2;
 3/5=16,11=2,25=1,30=1,71=1,74=-5/1,2,3;
 4/5=5,16=3,69=1/1;
 5/5=2,38=5/2;
 7//1,2,3,16;
 1/18=40,26=3/3(-5);
 2/29=3/2;
 6/7=2,8=2,9=2,10=2,19=2,28=1/1;
 99/9=1/99;
 -------------------
 Title Card Required
 -------------------
 Symbolic Z-matrix:
 Charge =  0 Multiplicity = 1
 C                    -1.34937   0.79498   0. 
 C                     0.11452   0.79498   0. 
 C                     0.80681   1.99418   0. 
 C                     0.07482   3.26194  -0.00002 
 C                    -1.30984   3.2619    0.00001 
 C                    -2.04175   1.99411   0.00002 
 C                    -1.80175  -0.31141  -0.84514 
 C                    -0.61747  -0.99516  -1.36751 
 C                     0.56689  -0.31137  -0.84519 
 C                     1.68706  -0.15866  -1.64468 
 C                     1.99106   2.1556   -0.84525 
 C                     0.80671   4.20686  -0.84527 
 C                     0.11431   5.10064  -1.6447 
 C                    -1.34959   5.10061  -1.64465 
 C                    -2.04185   4.20681  -0.84515 
 C                    -3.22617   3.523    -1.36745 
 C                    -3.22611   2.15549  -0.8451 
 C                    -3.65402   1.10899  -1.64451 
 C                    -2.92202  -0.15877  -1.64453 
 C                    -0.61752  -1.48926  -2.66102 
 C                    -1.80184  -1.32789  -3.50614 
 C                    -2.92206  -0.68114  -3.01204 
 C                    -3.65407   0.26377  -3.8572 
 C                    -4.10644   1.37012  -3.01201 
 C                    -4.10649   2.66364  -3.50611 
 C                    -3.65413   3.77002  -2.66096 
 C                    -2.92224   4.71498  -3.50619 
 C                    -1.80202   5.36178  -3.01217 
 C                     1.991     3.52313  -1.36764 
 C                     0.56656   4.34532  -5.67326 
 C                     1.68683   4.1927   -4.87389 
 C                     2.41881   2.92495  -4.87388 
 C                     1.9909    1.87845  -5.67331 
 C                     0.80657   2.03983  -6.51844 
 C                    -1.34971   3.23894  -6.51837 
 C                    -1.80208   4.34529  -5.67319 
 C                    -0.61777   5.0291   -5.15089 
 C                    -0.61773   5.52319  -3.85738 
 C                     0.56663   5.3618   -3.01221 
 C                     1.68685   4.71506  -3.50633 
 C                     2.8712    2.6638   -3.50637 
 C                     2.87126   1.37031  -3.01226 
 C                     2.41887   0.26391  -3.8574 
 C                     1.99094   0.51093  -5.15092 
 C                     0.80665  -0.17287  -5.67323 
 C                     0.07465   0.77203  -6.51838 
 C                    -1.31002   0.77201  -6.51833 
 C                    -2.04201   2.03976  -6.51833 
 C                    -2.92228   4.1926   -4.8737 
 C                    -3.65418   2.92481  -4.87366 
 C                    -3.22629   1.87833  -5.6731 
 C                    -3.22624   0.5108   -5.15074 
 C                    -2.04191  -0.17294  -5.67313 
 C                    -1.34952  -1.06672  -4.87372 
 C                     0.11437  -1.06669  -4.87375 
 C                     0.56679  -1.32782  -3.50627 
 C                     1.68701  -0.68102  -3.01222 
 C                     2.41883   3.77018  -2.66118 
 C                     2.41894   1.10914  -1.6447 
 C                     0.1142    3.23897  -6.5184 
 

 GradGradGradGradGradGradGradGradGradGradGradGradGradGradGradGradGradGrad
 Berny optimization.
 Initialization pass.
 No Z-matrix variables, so optimization will use Cartesian coordinates.
 Trust Radius=3.00D-01 FncErr=1.00D-07 GrdErr=1.00D-06 EigMax=2.50D+02 EigMin=1.00D-04
 Number of steps in this run=    190 maximum allowed number of steps=    360.
 GradGradGradGradGradGradGradGradGradGradGradGradGradGradGradGradGradGrad

 This structure is nearly, but not quite of a higher symmetry.
 Consider Symm=Loose if the higher symmetry is desired.
 Stoichiometry    C60
 Framework group  C1[X(C60)]
 Deg. of freedom   174
 Full point group                 C1      NOp   1
 Largest Abelian subgroup         C1      NOp   1
 Largest concise Abelian subgroup C1      NOp   1
                         Standard orientation:                         
 ---------------------------------------------------------------------
 Center     Atomic      Atomic             Coordinates (Angstroms)
 Number     Number       Type             X           Y           Z
 ---------------------------------------------------------------------
      1          6           0        0.242377   -3.546089   -0.132564
      2          6           0       -0.773452   -3.275353   -1.151271
      3          6           0       -0.417774   -2.650695   -2.334756
      4          6           0        0.974037   -2.261036   -2.567213
      5          6           0        1.934874   -2.517155   -1.603626
      6          6           0        1.558865   -3.177562   -0.352439
      7          6           0       -0.367169   -3.334723    1.181506
      8          6           0       -1.759693   -2.933309    0.974950
      9          6           0       -2.010811   -2.896604   -0.466819
     10          6           0       -2.825546   -1.913668   -1.002851
     11          6           0       -1.279132   -1.611513   -2.901436
     12          6           0        0.972842   -0.981048   -3.277572
     13          6           0        1.932581   -0.026480   -2.985922
     14          6           0        2.948406   -0.297274   -1.967221
     15          6           0        2.949515   -1.507988   -1.295300
     16          6           0        3.200602   -1.544715    0.146440
     17          6           0        2.341140   -2.576570    0.729154
     18          6           0        1.764593   -2.376641    1.972109
     19          6           0        0.372764   -2.766262    2.204574
     20          6           0       -2.336933   -1.985130    1.802625
     21          6           0       -1.554691   -1.384133    2.884200
     22          6           0       -0.237507   -1.763831    3.079583
     23          6           0        0.777137   -0.754658    3.387917
     24          6           0        2.014498   -1.133408    2.703453
     25          6           0        2.827446   -0.157378    2.152271
     26          6           0        3.436996   -0.368757    0.838213
     27          6           0        3.435831    0.911236    0.127828
     28          6           0        3.198333    0.945991   -1.235881
     29          6           0       -0.419666   -0.579620   -3.484146
     30          6           0        0.367134    3.334735   -1.181506
     31          6           0       -0.372794    2.766290   -2.204575
     32          6           0       -1.764596    2.376644   -1.972110
     33          6           0       -2.341146    2.576594   -0.729152
     34          6           0       -1.558894    3.177600    0.352422
     35          6           0        0.773425    3.275339    1.151261
     36          6           0        2.010788    2.896598    0.466796
     37          6           0        1.759707    2.933320   -0.974932
     38          6           0        2.336953    1.985133   -1.802594
     39          6           0        1.554676    1.384096   -2.884193
     40          6           0        0.237498    1.763810   -3.079594
     41          6           0       -2.014489    1.133397   -2.703428
     42          6           0       -2.827419    0.157368   -2.152270
     43          6           0       -3.436967    0.368721   -0.838184
     44          6           0       -3.200588    1.544702   -0.146427
     45          6           0       -2.949521    1.507994    1.295284
     46          6           0       -1.934888    2.517154    1.603608
     47          6           0       -0.974033    2.261012    2.567174
     48          6           0        0.417778    2.650655    2.334719
     49          6           0        2.825548    1.913667    1.002847
     50          6           0        2.449541    1.253235    2.254015
     51          6           0        1.279149    1.611482    2.901435
     52          6           0        0.419687    0.579610    3.484155
     53          6           0       -0.972862    0.981052    3.277572
     54          6           0       -1.932596    0.026503    2.985944
     55          6           0       -2.948415    0.297279    1.967232
     56          6           0       -3.198314   -0.945935    1.235900
     57          6           0       -3.435807   -0.911204   -0.127812
     58          6           0       -0.777106    0.754661   -3.387905
     59          6           0       -2.449515   -1.253258   -2.254020
     60          6           0       -0.242397    3.546122    0.132531
 ---------------------------------------------------------------------
 Rotational constants (GHZ):           0.0832220           0.0832218           0.0832214
 Standard basis: CC-pVDZ (5D, 7F)
 There are   900 symmetry adapted cartesian basis functions of A   symmetry.
 There are   840 symmetry adapted basis functions of A   symmetry.
   840 basis functions,  1980 primitive gaussians,   900 cartesian basis functions
   180 alpha electrons      180 beta electrons
       nuclear repulsion energy      8310.3962913868 Hartrees.
 NAtoms=   60 NActive=   60 NUniq=   60 SFac= 1.00D+00 NAtFMM=   60 NAOKFM=T Big=T
 Integral buffers will be    131072 words long.
 Raffenetti 2 integral format.
 Two-electron integral symmetry is turned on.
 One-electron integrals computed using PRISM.
 NBasis=   840 RedAO= T EigKep=  1.25D-04  NBF=   840
 NBsUse=   840 1.00D-06 EigRej= -1.00D+00 NBFU=   840
 ExpMin= 1.52D-01 ExpMax= 6.67D+03 ExpMxC= 2.28D+02 IAcc=3 IRadAn=         5 AccDes= 0.00D+00
 Harris functional with IExCor=  402 and IRadAn=       5 diagonalized for initial guess.
 HarFok:  IExCor=  402 AccDes= 0.00D+00 IRadAn=         5 IDoV= 1 UseB2=F ITyADJ=14
 ICtDFT=  3500011 ScaDFX=  1.000000  1.000000  1.000000  1.000000
 FoFCou: FMM=F IPFlag=           0 FMFlag=      100000 FMFlg1=        2001
         NFxFlg=           0 DoJE=T BraDBF=F KetDBF=T FulRan=T
         wScrn=  0.000000 ICntrl=       500 IOpCl=  0 I1Cent=   200000004 NGrid=           0
         NMat0=    1 NMatS0=      1 NMatT0=    0 NMatD0=    1 NMtDS0=    0 NMtDT0=    0
 Petite list used in FoFCou.
 Requested convergence on RMS density matrix=1.00D-08 within 128 cycles.
 Requested convergence on MAX density matrix=1.00D-06.
 Requested convergence on             energy=1.00D-06.
 No special actions if energy rises.
 Integral accuracy reduced to 1.0D-05 until final iterations.
 Rare condition: small coef for last iteration:  0.000D+00
 Rare condition: small coef for last iteration:  0.000D+00
 Initial convergence to 1.0D-05 achieved.  Increase integral accuracy.
 SCF Done:  E(RB3LYP) =  -2286.31004356     A.U. after   28 cycles
            NFock= 28  Conv=0.70D-08     -V/T= 2.0063

 **********************************************************************

            Population analysis using the SCF density.

 **********************************************************************

 Orbital symmetries:
       Occupied  (A) (A) (A) (A) (A) (A) (A) (A) (A) (A) (A) (A)
                 (A) (A) (A) (A) (A) (A) (A) (A) (A) (A) (A) (A)
                 (A) (A) (A) (A) (A) (A) (A) (A) (A) (A) (A) (A)
                 (A) (A) (A) (A) (A) (A) (A) (A) (A) (A) (A) (A)
                 (A) (A) (A) (A) (A) (A) (A) (A) (A) (A) (A) (A)
                 (A) (A) (A) (A) (A) (A) (A) (A) (A) (A) (A) (A)
                 (A) (A) (A) (A) (A) (A) (A) (A) (A) (A) (A) (A)
                 (A) (A) (A) (A) (A) (A) (A) (A) (A) (A) (A) (A)
                 (A) (A) (A) (A) (A) (A) (A) (A) (A) (A) (A) (A)
                 (A) (A) (A) (A) (A) (A) (A) (A) (A) (A) (A) (A)
                 (A) (A) (A) (A) (A) (A) (A) (A) (A) (A) (A) (A)
                 (A) (A) (A) (A) (A) (A) (A) (A) (A) (A) (A) (A)
                 (A) (A) (A) (A) (A) (A) (A) (A) (A) (A) (A) (A)
                 (A) (A) (A) (A) (A) (A) (A) (A) (A) (A) (A) (A)
                 (A) (A) (A) (A) (A) (A) (A) (A) (A) (A) (A) (A)
       Virtual   (A) (A) (A) (A) (A) (A) (A) (A) (A) (A) (A) (A)
                 (A) (A) (A) (A) (A) (A) (A) (A) (A) (A) (A) (A)
                 (A) (A) (A) (A) (A) (A) (A) (A) (A) (A) (A) (A)
                 (A) (A) (A) (A) (A) (A) (A) (A) (A) (A) (A) (A)
                 (A) (A) (A) (A) (A) (A) (A) (A) (A) (A) (A) (A)
                 (A) (A) (A) (A) (A) (A) (A) (A) (A) (A) (A) (A)
                 (A) (A) (A) (A) (A) (A) (A) (A) (A) (A) (A) (A)
                 (A) (A) (A) (A) (A) (A) (A) (A) (A) (A) (A) (A)
                 (A) (A) (A) (A) (A) (A) (A) (A) (A) (A) (A) (A)
                 (A) (A) (A) (A) (A) (A) (A) (A) (A) (A) (A) (A)
                 (A) (A) (A) (A) (A) (A) (A) (A) (A) (A) (A) (A)
                 (A) (A) (A) (A) (A) (A) (A) (A) (A) (A) (A) (A)
                 (A) (A) (A) (A) (A) (A) (A) (A) (A) (A) (A) (A)
                 (A) (A) (A) (A) (A) (A) (A) (A) (A) (A) (A) (A)
                 (A) (A) (A) (A) (A) (A) (A) (A) (A) (A) (A) (A)
                 (A) (A) (A) (A) (A) (A) (A) (A) (A) (A) (A) (A)
                 (A) (A) (A) (A) (A) (A) (A) (A) (A) (A) (A) (A)
                 (A) (A) (A) (A) (A) (A) (A) (A) (A) (A) (A) (A)
                 (A) (A) (A) (A) (A) (A) (A) (A) (A) (A) (A) (A)
                 (A) (A) (A) (A) (A) (A) (A) (A) (A) (A) (A) (A)
                 (A) (A) (A) (A) (A) (A) (A) (A) (A) (A) (A) (A)
                 (A) (A) (A) (A) (A) (A) (A) (A) (A) (A) (A) (A)
                 (A) (A) (A) (A) (A) (A) (A) (A) (A) (A) (A) (A)
                 (A) (A) (A) (A) (A) (A) (A) (A) (A) (A) (A) (A)
                 (A) (A) (A) (A) (A) (A) (A) (A) (A) (A) (A) (A)
                 (A) (A) (A) (A) (A) (A) (A) (A) (A) (A) (A) (A)
                 (A) (A) (A) (A) (A) (A) (A) (A) (A) (A) (A) (A)
                 (A) (A) (A) (A) (A) (A) (A) (A) (A) (A) (A) (A)
                 (A) (A) (A) (A) (A) (A) (A) (A) (A) (A) (A) (A)
                 (A) (A) (A) (A) (A) (A) (A) (A) (A) (A) (A) (A)
                 (A) (A) (A) (A) (A) (A) (A) (A) (A) (A) (A) (A)
                 (A) (A) (A) (A) (A) (A) (A) (A) (A) (A) (A) (A)
                 (A) (A) (A) (A) (A) (A) (A) (A) (A) (A) (A) (A)
                 (A) (A) (A) (A) (A) (A) (A) (A) (A) (A) (A) (A)
                 (A) (A) (A) (A) (A) (A) (A) (A) (A) (A) (A) (A)
                 (A) (A) (A) (A) (A) (A) (A) (A) (A) (A) (A) (A)
                 (A) (A) (A) (A) (A) (A) (A) (A) (A) (A) (A) (A)
                 (A) (A) (A) (A) (A) (A) (A) (A) (A) (A) (A) (A)
                 (A) (A) (A) (A) (A) (A) (A) (A) (A) (A) (A) (A)
                 (A) (A) (A) (A) (A) (A) (A) (A) (A) (A) (A) (A)
                 (A) (A) (A) (A) (A) (A) (A) (A) (A) (A) (A) (A)
                 (A) (A) (A) (A) (A) (A) (A) (A) (A) (A) (A) (A)
                 (A) (A) (A) (A) (A) (A) (A) (A) (A) (A) (A) (A)
                 (A) (A) (A) (A) (A) (A) (A) (A) (A) (A) (A) (A)
                 (A) (A) (A) (A) (A) (A) (A) (A) (A) (A) (A) (A)
                 (A) (A) (A) (A) (A) (A) (A) (A) (A) (A) (A) (A)
                 (A) (A) (A) (A) (A) (A) (A) (A) (A) (A) (A) (A)
                 (A) (A) (A) (A) (A) (A) (A) (A) (A) (A) (A) (A)
                 (A) (A) (A) (A) (A) (A) (A) (A) (A) (A) (A) (A)
                 (A) (A) (A) (A) (A) (A) (A) (A) (A) (A) (A) (A)
                 (A) (A) (A) (A) (A) (A) (A) (A) (A) (A) (A) (A)
                 (A) (A) (A) (A) (A) (A) (A) (A) (A) (A) (A) (A)
                 (A) (A) (A) (A) (A) (A) (A) (A) (A) (A) (A) (A)
                 (A) (A) (A) (A) (A) (A) (A) (A) (A) (A) (A) (A)
                 (A) (A) (A) (A) (A) (A) (A) (A) (A) (A) (A) (A)
 The electronic state is 1-A.
 Alpha  occ. eigenvalues --  -10.23727 -10.23724 -10.23724 -10.23724 -10.23718
 Alpha  occ. eigenvalues --  -10.23718 -10.23718 -10.23718 -10.23718 -10.23712
 Alpha  occ. eigenvalues --  -10.23712 -10.23712 -10.23712 -10.23708 -10.23708
 Alpha  occ. eigenvalues --  -10.23708 -10.23705 -10.23705 -10.23705 -10.23705
 Alpha  occ. eigenvalues --  -10.23702 -10.23702 -10.23702 -10.23701 -10.23701
 Alpha  occ. eigenvalues --  -10.23700 -10.23700 -10.23700 -10.23700 -10.23700
 Alpha  occ. eigenvalues --  -10.23666 -10.23666 -10.23666 -10.23665 -10.23665
 Alpha  occ. eigenvalues --  -10.23665 -10.23656 -10.23656 -10.23656 -10.23655
 Alpha  occ. eigenvalues --  -10.23655 -10.23652 -10.23652 -10.23652 -10.23651
 Alpha  occ. eigenvalues --  -10.23651 -10.23650 -10.23650 -10.23650 -10.23642
 Alpha  occ. eigenvalues --  -10.23642 -10.23641 -10.23641 -10.23631 -10.23631
 Alpha  occ. eigenvalues --  -10.23631 -10.23631 -10.23631 -10.23631 -10.23630
 Alpha  occ. eigenvalues --   -0.97511  -0.95539  -0.95539  -0.95539  -0.91739
 Alpha  occ. eigenvalues --   -0.91739  -0.91739  -0.91739  -0.91738  -0.87514
 Alpha  occ. eigenvalues --   -0.87514  -0.87514  -0.84935  -0.84935  -0.84934
 Alpha  occ. eigenvalues --   -0.84934  -0.79596  -0.79595  -0.79595  -0.79595
 Alpha  occ. eigenvalues --   -0.79595  -0.78237  -0.78237  -0.78237  -0.78237
 Alpha  occ. eigenvalues --   -0.72628  -0.72628  -0.72628  -0.72628  -0.72628
 Alpha  occ. eigenvalues --   -0.70697  -0.70697  -0.70697  -0.66823  -0.66823
 Alpha  occ. eigenvalues --   -0.66823  -0.63393  -0.63393  -0.63393  -0.63393
 Alpha  occ. eigenvalues --   -0.63393  -0.62464  -0.62464  -0.62463  -0.60065
 Alpha  occ. eigenvalues --   -0.55917  -0.55917  -0.55917  -0.55917  -0.53697
 Alpha  occ. eigenvalues --   -0.53697  -0.53697  -0.53697  -0.53697  -0.52004
 Alpha  occ. eigenvalues --   -0.52004  -0.52004  -0.49819  -0.49819  -0.49819
 Alpha  occ. eigenvalues --   -0.48689  -0.46840  -0.46840  -0.46840  -0.46840
 Alpha  occ. eigenvalues --   -0.46345  -0.46345  -0.46345  -0.45191  -0.45191
 Alpha  occ. eigenvalues --   -0.45191  -0.45191  -0.45191  -0.44088  -0.44088
 Alpha  occ. eigenvalues --   -0.44087  -0.44087  -0.42349  -0.42349  -0.42349
 Alpha  occ. eigenvalues --   -0.41889  -0.41889  -0.41889  -0.41889  -0.41888
 Alpha  occ. eigenvalues --   -0.40927  -0.40927  -0.40927  -0.40927  -0.36474
 Alpha  occ. eigenvalues --   -0.36474  -0.36474  -0.36474  -0.36474  -0.36308
 Alpha  occ. eigenvalues --   -0.36307  -0.36307  -0.35322  -0.35322  -0.35322
 Alpha  occ. eigenvalues --   -0.35322  -0.35322  -0.34768  -0.34768  -0.34768
 Alpha  occ. eigenvalues --   -0.34767  -0.27935  -0.27935  -0.27935  -0.27934
 Alpha  occ. eigenvalues --   -0.27877  -0.27877  -0.27877  -0.27877  -0.27877
 Alpha  occ. eigenvalues --   -0.23054  -0.23054  -0.23054  -0.23054  -0.23054
 Alpha virt. eigenvalues --   -0.12532  -0.12532  -0.12532  -0.08116  -0.08115
 Alpha virt. eigenvalues --   -0.08115  -0.04799  -0.04799  -0.04799  -0.04333
 Alpha virt. eigenvalues --   -0.04333  -0.04333  -0.04333  -0.04333   0.01937
 Alpha virt. eigenvalues --    0.01937   0.01937   0.01937   0.01938   0.03802
 Alpha virt. eigenvalues --    0.03802   0.03802   0.03802   0.06293   0.06293
 Alpha virt. eigenvalues --    0.06294   0.06294   0.08327   0.08327   0.08327
 Alpha virt. eigenvalues --    0.11760   0.11761   0.11761   0.14405   0.14406
 Alpha virt. eigenvalues --    0.14406   0.14406   0.14406   0.17207   0.17207
 Alpha virt. eigenvalues --    0.17207   0.18449   0.18449   0.18449   0.18636
 Alpha virt. eigenvalues --    0.18637   0.18637   0.18637   0.23252   0.23253
 Alpha virt. eigenvalues --    0.23253   0.23253   0.23253   0.23672   0.23673
 Alpha virt. eigenvalues --    0.23673   0.23673   0.27378   0.27378   0.27379
 Alpha virt. eigenvalues --    0.27379   0.27379   0.30531   0.30531   0.30532
 Alpha virt. eigenvalues --    0.31355   0.31355   0.31355   0.34200   0.34200
 Alpha virt. eigenvalues --    0.34200   0.37308   0.37308   0.37309   0.37309
 Alpha virt. eigenvalues --    0.37309   0.38018   0.41226   0.41344   0.41346
 Alpha virt. eigenvalues --    0.41348   0.42168   0.42168   0.42168   0.42169
 Alpha virt. eigenvalues --    0.42890   0.42890   0.42890   0.42890   0.42891
 Alpha virt. eigenvalues --    0.43587   0.43587   0.43588   0.43588   0.44043
 Alpha virt. eigenvalues --    0.44044   0.44044   0.44845   0.44845   0.44846
 Alpha virt. eigenvalues --    0.44885   0.44885   0.44885   0.44911   0.44911
 Alpha virt. eigenvalues --    0.44911   0.44911   0.44911   0.46010   0.46010
 Alpha virt. eigenvalues --    0.46010   0.46010   0.46010   0.46013   0.46013
 Alpha virt. eigenvalues --    0.46013   0.46013   0.47107   0.47107   0.47107
 Alpha virt. eigenvalues --    0.47107   0.47230   0.47230   0.47230   0.47410
 Alpha virt. eigenvalues --    0.47480   0.47480   0.47480   0.48809   0.48809
 Alpha virt. eigenvalues --    0.48809   0.48855   0.48855   0.48855   0.48855
 Alpha virt. eigenvalues --    0.48855   0.51877   0.51877   0.51877   0.51877
 Alpha virt. eigenvalues --    0.51878   0.52517   0.52517   0.52517   0.52518
 Alpha virt. eigenvalues --    0.53379   0.53379   0.53380   0.53380   0.53382
 Alpha virt. eigenvalues --    0.53427   0.53427   0.53427   0.53667   0.53668
 Alpha virt. eigenvalues --    0.53668   0.53668   0.53668   0.54719   0.54719
 Alpha virt. eigenvalues --    0.54719   0.54719   0.56111   0.56112   0.56112
 Alpha virt. eigenvalues --    0.56112   0.56112   0.56381   0.56381   0.56381
 Alpha virt. eigenvalues --    0.56381   0.56381   0.58434   0.58434   0.58434
 Alpha virt. eigenvalues --    0.58434   0.61186   0.61186   0.61186   0.61332
 Alpha virt. eigenvalues --    0.61332   0.61332   0.61832   0.61833   0.61834
 Alpha virt. eigenvalues --    0.62419   0.62421   0.62421   0.62423   0.62905
 Alpha virt. eigenvalues --    0.62905   0.62906   0.64337   0.64338   0.64338
 Alpha virt. eigenvalues --    0.64815   0.64815   0.64815   0.64815   0.64815
 Alpha virt. eigenvalues --    0.65701   0.65702   0.65703   0.65703   0.66090
 Alpha virt. eigenvalues --    0.66090   0.66090   0.66090   0.66736   0.67629
 Alpha virt. eigenvalues --    0.67629   0.67630   0.67923   0.68363   0.68363
 Alpha virt. eigenvalues --    0.68363   0.68363   0.69472   0.69473   0.69473
 Alpha virt. eigenvalues --    0.69473   0.69596   0.69596   0.69596   0.69596
 Alpha virt. eigenvalues --    0.69597   0.70251   0.70251   0.70251   0.70251
 Alpha virt. eigenvalues --    0.70251   0.70598   0.70598   0.70599   0.70788
 Alpha virt. eigenvalues --    0.70789   0.70789   0.72022   0.72023   0.72023
 Alpha virt. eigenvalues --    0.72023   0.72024   0.79418   0.79419   0.79419
 Alpha virt. eigenvalues --    0.82660   0.82661   0.82661   0.82661   0.83310
 Alpha virt. eigenvalues --    0.83310   0.83311   0.83311   0.83311   0.83736
 Alpha virt. eigenvalues --    0.83736   0.83736   0.86693   0.86693   0.86694
 Alpha virt. eigenvalues --    0.88761   0.88761   0.88761   0.91308   0.91308
 Alpha virt. eigenvalues --    0.91308   0.91308   0.91308   0.91772   0.91772
 Alpha virt. eigenvalues --    0.91772   0.91772   0.91772   0.92021   0.92021
 Alpha virt. eigenvalues --    0.92021   0.92022   0.95464   0.95464   0.95464
 Alpha virt. eigenvalues --    0.95465   0.96550   0.96550   0.96551   0.96551
 Alpha virt. eigenvalues --    0.96551   1.00917   1.00917   1.00918   1.02159
 Alpha virt. eigenvalues --    1.02160   1.02160   1.02441   1.02441   1.02441
 Alpha virt. eigenvalues --    1.04421   1.04422   1.04422   1.04422   1.06516
 Alpha virt. eigenvalues --    1.06516   1.06516   1.08549   1.08549   1.08549
 Alpha virt. eigenvalues --    1.08550   1.08550   1.09323   1.11022   1.11022
 Alpha virt. eigenvalues --    1.11022   1.11023   1.11951   1.11952   1.11952
 Alpha virt. eigenvalues --    1.11952   1.11953   1.12429   1.12430   1.12430
 Alpha virt. eigenvalues --    1.12430   1.12431   1.12521   1.12521   1.12521
 Alpha virt. eigenvalues --    1.12521   1.15145   1.15146   1.15146   1.15146
 Alpha virt. eigenvalues --    1.15146   1.16416   1.16416   1.16416   1.16962
 Alpha virt. eigenvalues --    1.16962   1.16962   1.16962   1.21833   1.21833
 Alpha virt. eigenvalues --    1.21833   1.21834   1.21834   1.22145   1.22146
 Alpha virt. eigenvalues --    1.22146   1.22671   1.22671   1.22672   1.22672
 Alpha virt. eigenvalues --    1.24460   1.24460   1.24460   1.24460   1.24460
 Alpha virt. eigenvalues --    1.25227   1.25228   1.25228   1.26508   1.26508
 Alpha virt. eigenvalues --    1.26508   1.28688   1.28688   1.28688   1.29991
 Alpha virt. eigenvalues --    1.29991   1.29991   1.29991   1.29992   1.31629
 Alpha virt. eigenvalues --    1.31630   1.31630   1.31630   1.33226   1.33226
 Alpha virt. eigenvalues --    1.33226   1.33226   1.33227   1.35538   1.35539
 Alpha virt. eigenvalues --    1.35539   1.35760   1.35760   1.35760   1.40045
 Alpha virt. eigenvalues --    1.40948   1.43721   1.43721   1.43721   1.43721
 Alpha virt. eigenvalues --    1.43898   1.43898   1.43898   1.45400   1.45400
 Alpha virt. eigenvalues --    1.45401   1.47785   1.47785   1.47785   1.47785
 Alpha virt. eigenvalues --    1.48378   1.48378   1.48378   1.48378   1.48378
 Alpha virt. eigenvalues --    1.48897   1.48897   1.48898   1.48898   1.48898
 Alpha virt. eigenvalues --    1.50402   1.50402   1.50403   1.50833   1.50833
 Alpha virt. eigenvalues --    1.50833   1.50833   1.50833   1.54560   1.54561
 Alpha virt. eigenvalues --    1.54561   1.54561   1.56096   1.56097   1.56097
 Alpha virt. eigenvalues --    1.56944   1.56945   1.56945   1.56945   1.57496
 Alpha virt. eigenvalues --    1.57496   1.57497   1.57577   1.57578   1.57578
 Alpha virt. eigenvalues --    1.57578   1.57579   1.58565   1.58565   1.58565
 Alpha virt. eigenvalues --    1.58566   1.62953   1.62954   1.62954   1.62954
 Alpha virt. eigenvalues --    1.62954   1.63391   1.63391   1.63392   1.64036
 Alpha virt. eigenvalues --    1.64037   1.64038   1.65774   1.65774   1.65774
 Alpha virt. eigenvalues --    1.66196   1.66196   1.66196   1.66197   1.66197
 Alpha virt. eigenvalues --    1.68221   1.68222   1.68222   1.68222   1.68222
 Alpha virt. eigenvalues --    1.70613   1.70613   1.70613   1.70614   1.70614
 Alpha virt. eigenvalues --    1.71057   1.71057   1.71058   1.72082   1.72082
 Alpha virt. eigenvalues --    1.72083   1.72083   1.79162   1.79162   1.79163
 Alpha virt. eigenvalues --    1.80450   1.80451   1.80451   1.80451   1.80451
 Alpha virt. eigenvalues --    1.81297   1.81298   1.81298   1.81298   1.81378
 Alpha virt. eigenvalues --    1.81379   1.81379   1.81379   1.81379   1.82167
 Alpha virt. eigenvalues --    1.82168   1.82168   1.82169   1.82641   1.82641
 Alpha virt. eigenvalues --    1.82642   1.85046   1.85047   1.85047   1.85047
 Alpha virt. eigenvalues --    1.85048   1.90323   1.90323   1.90323   1.90323
 Alpha virt. eigenvalues --    1.90323   1.91272   1.91273   1.91273   1.92198
 Alpha virt. eigenvalues --    1.92198   1.92198   1.92521   1.92522   1.92522
 Alpha virt. eigenvalues --    1.92522   1.92522   1.92751   1.92751   1.92752
 Alpha virt. eigenvalues --    1.92752   1.93724   1.93724   1.93724   1.96252
 Alpha virt. eigenvalues --    1.96252   1.96252   1.96253   2.00911   2.00911
 Alpha virt. eigenvalues --    2.00912   2.05272   2.05273   2.05273   2.07789
 Alpha virt. eigenvalues --    2.07789   2.07789   2.07789   2.07790   2.08884
 Alpha virt. eigenvalues --    2.08884   2.08884   2.08884   2.10229   2.10229
 Alpha virt. eigenvalues --    2.10230   2.10839   2.10839   2.10839   2.10839
 Alpha virt. eigenvalues --    2.10839   2.12507   2.12507   2.12508   2.13374
 Alpha virt. eigenvalues --    2.13375   2.13375   2.14019   2.14019   2.14020
 Alpha virt. eigenvalues --    2.14020   2.14020   2.26628   2.26628   2.26628
 Alpha virt. eigenvalues --    2.26628   2.26714   2.26714   2.26714   2.26714
 Alpha virt. eigenvalues --    2.26714   2.30230   2.30230   2.30231   2.30231
 Alpha virt. eigenvalues --    2.30231   2.30946   2.30946   2.30946   2.30946
 Alpha virt. eigenvalues --    2.31105   2.31105   2.31105   2.31106   2.31106
 Alpha virt. eigenvalues --    2.34422   2.34422   2.34423   2.41139   2.41139
 Alpha virt. eigenvalues --    2.41139   2.44463   2.44464   2.44464   2.44464
 Alpha virt. eigenvalues --    2.45145   2.45146   2.45146   2.47834   2.47835
 Alpha virt. eigenvalues --    2.47835   2.48556   2.48557   2.48557   2.48557
 Alpha virt. eigenvalues --    2.49567   2.49568   2.49568   2.52247   2.52945
 Alpha virt. eigenvalues --    2.52946   2.52946   2.52946   2.52947   2.58040
 Alpha virt. eigenvalues --    2.58041   2.58041   2.58041   2.60852   2.60853
 Alpha virt. eigenvalues --    2.60853   2.60854   2.60854   2.70113   2.70114
 Alpha virt. eigenvalues --    2.70114   2.70114   2.70115   2.73422   2.73423
 Alpha virt. eigenvalues --    2.73423   2.73425   2.77735   2.77735   2.77735
 Alpha virt. eigenvalues --    2.77736   2.82581   2.82581   2.82582   2.93031
 Alpha virt. eigenvalues --    2.93031   2.93031   2.93032   2.93032   3.09706
 Alpha virt. eigenvalues --    3.09706   3.09707   3.09707   3.15612   3.15613
 Alpha virt. eigenvalues --    3.15613   3.28471   3.28472   3.28472   3.37409
          Condensed to atoms (all electrons):
 Mulliken charges:
               1
     1  C    0.000005
     2  C   -0.000007
     3  C   -0.000040
     4  C    0.000015
     5  C    0.000006
     6  C   -0.000003
     7  C    0.000025
     8  C   -0.000008
     9  C    0.000025
    10  C   -0.000020
    11  C    0.000017
    12  C   -0.000000
    13  C    0.000029
    14  C   -0.000002
    15  C   -0.000036
    16  C    0.000011
    17  C    0.000023
    18  C   -0.000002
    19  C   -0.000012
    20  C   -0.000015
    21  C   -0.000020
    22  C    0.000021
    23  C    0.000005
    24  C   -0.000010
    25  C   -0.000008
    26  C    0.000025
    27  C   -0.000029
    28  C    0.000007
    29  C   -0.000032
    30  C    0.000043
    31  C   -0.000035
    32  C    0.000008
    33  C    0.000011
    34  C   -0.000024
    35  C   -0.000015
    36  C    0.000040
    37  C   -0.000016
    38  C   -0.000017
    39  C   -0.000006
    40  C    0.000012
    41  C    0.000003
    42  C   -0.000023
    43  C    0.000036
    44  C    0.000010
    45  C   -0.000036
    46  C    0.000001
    47  C    0.000035
    48  C   -0.000014
    49  C   -0.000011
    50  C    0.000014
    51  C    0.000010
    52  C   -0.000037
    53  C    0.000001
    54  C    0.000007
    55  C    0.000008
    56  C    0.000006
    57  C   -0.000007
    58  C    0.000009
    59  C    0.000017
    60  C    0.000000
 Sum of Mulliken charges =  -0.00000
 Mulliken charges with hydrogens summed into heavy atoms:
               1
     1  C    0.000005
     2  C   -0.000007
     3  C   -0.000040
     4  C    0.000015
     5  C    0.000006
     6  C   -0.000003
     7  C    0.000025
     8  C   -0.000008
     9  C    0.000025
    10  C   -0.000020
    11  C    0.000017
    12  C   -0.000000
    13  C    0.000029
    14  C   -0.000002
    15  C   -0.000036
    16  C    0.000011
    17  C    0.000023
    18  C   -0.000002
    19  C   -0.000012
    20  C   -0.000015
    21  C   -0.000020
    22  C    0.000021
    23  C    0.000005
    24  C   -0.000010
    25  C   -0.000008
    26  C    0.000025
    27  C   -0.000029
    28  C    0.000007
    29  C   -0.000032
    30  C    0.000043
    31  C   -0.000035
    32  C    0.000008
    33  C    0.000011
    34  C   -0.000024
    35  C   -0.000015
    36  C    0.000040
    37  C   -0.000016
    38  C   -0.000017
    39  C   -0.000006
    40  C    0.000012
    41  C    0.000003
    42  C   -0.000023
    43  C    0.000036
    44  C    0.000010
    45  C   -0.000036
    46  C    0.000001
    47  C    0.000035
    48  C   -0.000014
    49  C   -0.000011
    50  C    0.000014
    51  C    0.000010
    52  C   -0.000037
    53  C    0.000001
    54  C    0.000007
    55  C    0.000008
    56  C    0.000006
    57  C   -0.000007
    58  C    0.000009
    59  C    0.000017
    60  C    0.000000
 Electronic spatial extent (au):  <R**2>=          17001.6895
 Charge=             -0.0000 electrons
 Dipole moment (field-independent basis, Debye):
    X=              0.0000    Y=              0.0000    Z=              0.0000  Tot=              0.0000
 Quadrupole moment (field-independent basis, Debye-Ang):
   XX=           -330.5365   YY=           -330.5368   ZZ=           -330.5371
   XY=             -0.0003   XZ=              0.0006   YZ=              0.0002
 Traceless Quadrupole moment (field-independent basis, Debye-Ang):
   XX=              0.0003   YY=              0.0000   ZZ=             -0.0003
   XY=             -0.0003   XZ=              0.0006   YZ=              0.0002
 Octapole moment (field-independent basis, Debye-Ang**2):
  XXX=             -0.0015  YYY=             -0.0001  ZZZ=              0.0003  XYY=              0.0007
  XXY=             -0.0010  XXZ=             -0.0003  XZZ=             -0.0002  YZZ=              0.0011
  YYZ=              0.0002  XYZ=              0.0001
 Hexadecapole moment (field-independent basis, Debye-Ang**3):
 XXXX=          -8738.5517 YYYY=          -8738.4764 ZZZZ=          -8738.5169 XXXY=             -0.0151
 XXXZ=              0.0133 YYYX=             -0.0106 YYYZ=             -0.0153 ZZZX=              0.0115
 ZZZY=             -0.0189 XXYY=          -2912.8401 XXZZ=          -2912.8437 YYZZ=          -2912.8315
 XXYZ=             -0.0067 YYXZ=              0.0054 ZZXY=             -0.0057
 N-N= 8.310396291387D+03 E-N=-2.191648101778D+04  KE= 2.272081385587D+03
 Calling FoFJK, ICntrl=      2127 FMM=T ISym2X=0 I1Cent= 0 IOpClX= 0 NMat=1 NMatS=1 NMatT=0.
 ***** Axes restored to original set *****
 -------------------------------------------------------------------
 Center     Atomic                   Forces (Hartrees/Bohr)
 Number     Number              X              Y              Z
 -------------------------------------------------------------------
      1        6           0.007693444   -0.011304209   -0.002615802
      2        6          -0.007701365   -0.011307023   -0.002654432
      3        6           0.005948885    0.012331527   -0.002628851
      4        6           0.013647401   -0.001044617   -0.002735082
      5        6          -0.013647147   -0.001022567   -0.002623625
      6        6          -0.005942922    0.012337121   -0.002682916
      7        6           0.012444276    0.000308375    0.006251175
      8        6           0.000033110    0.007495766    0.011743125
      9        6          -0.012490943    0.000358712    0.006170126
     10        6           0.009593866    0.003362942   -0.009488082
     11        6          -0.006520931    0.010601397    0.006206166
     12        6           0.005920916   -0.010945332    0.006244746
     13        6          -0.007700903    0.006684851   -0.009481880
     14        6           0.007730571    0.006637966   -0.009539132
     15        6          -0.005989138   -0.010906788    0.006275537
     16        6           0.006495797   -0.003772679    0.011703185
     17        6           0.006561165    0.010610676    0.006226316
     18        6          -0.001925532   -0.010015224   -0.009505462
     19        6          -0.009643334    0.003375812   -0.009511631
     20        6           0.000014192   -0.002217279   -0.013767013
     21        6           0.012453832   -0.003882776   -0.004859950
     22        6          -0.009584182    0.008887286    0.004845707
     23        6          -0.001917965   -0.001120671    0.013780146
     24        6           0.002835240   -0.012738576    0.004835672
     25        6           0.002897859    0.012734848   -0.004873668
     26        6          -0.001854429    0.001078218   -0.013760759
     27        6          -0.009631732   -0.008817457   -0.004864825
     28        6           0.012450013    0.003902053    0.004894847
     29        6          -0.006467390   -0.003761526    0.011733852
     30        6          -0.012457271   -0.000286523   -0.006244138
     31        6           0.009639600   -0.003364554    0.009536118
     32        6           0.001925673    0.010006961    0.009496319
     33        6          -0.006551377   -0.010617726   -0.006213746
     34        6           0.005933026   -0.012336951    0.002684867
     35        6           0.007708680    0.011327371    0.002658416
     36        6           0.012463855   -0.000369040   -0.006173758
     37        6          -0.000002428   -0.007499137   -0.011739620
     38        6           0.000016448    0.002217011    0.013766684
     39        6          -0.012463737    0.003892641    0.004820986
     40        6           0.009570473   -0.008880479   -0.004870910
     41        6          -0.002834164    0.012758289   -0.004832039
     42        6          -0.002904228   -0.012753465    0.004878474
     43        6           0.001873313   -0.001048133    0.013737045
     44        6          -0.006482745    0.003780829   -0.011701628
     45        6           0.005977727    0.010898192   -0.006277506
     46        6           0.013641829    0.001030903    0.002616309
     47        6          -0.013646980    0.001038693    0.002731084
     48        6          -0.005953853   -0.012341996    0.002624716
     49        6          -0.009591936   -0.003363377    0.009481644
     50        6          -0.001896640    0.010003434    0.009535302
     51        6           0.006530012   -0.010592253   -0.006209959
     52        6           0.006480760    0.003754232   -0.011739878
     53        6          -0.005939435    0.010961406   -0.006240358
     54        6           0.007699938   -0.006697102    0.009512981
     55        6          -0.007733500   -0.006628891    0.009520606
     56        6          -0.012455163   -0.003913451   -0.004857014
     57        6           0.009622180    0.008804213    0.004887287
     58        6           0.001931604    0.001095670   -0.013769128
     59        6           0.001902822   -0.010009369   -0.009547766
     60        6          -0.007707134    0.011281773    0.002611119
 -------------------------------------------------------------------
 Cartesian Forces:  Max     0.013780146 RMS     0.008045049

 GradGradGradGradGradGradGradGradGradGradGradGradGradGradGradGradGradGrad
 Berny optimization.
 Search for a local minimum.
 Step number   1 out of a maximum of  190
 All quantities printed in internal units (Hartrees-Bohrs-Radians)
 Second derivative matrix not updated -- first step.
 ITU=  0
     Eigenvalues ---    0.02905   0.02905   0.02905   0.02905   0.02905
     Eigenvalues ---    0.06021   0.06021   0.06021   0.06229   0.06229
     Eigenvalues ---    0.06229   0.06229   0.06272   0.06272   0.06272
     Eigenvalues ---    0.06272   0.06273   0.09808   0.10141   0.10141
     Eigenvalues ---    0.10141   0.10141   0.10141   0.11058   0.11058
     Eigenvalues ---    0.11058   0.11058   0.14471   0.14471   0.14471
     Eigenvalues ---    0.14541   0.14541   0.14541   0.14541   0.14541
     Eigenvalues ---    0.15302   0.15302   0.15302   0.15302   0.16407
     Eigenvalues ---    0.16407   0.16407   0.17250   0.17250   0.17250
     Eigenvalues ---    0.21032   0.21032   0.21032   0.23966   0.23966
     Eigenvalues ---    0.23966   0.23966   0.23966   0.24362   0.24362
     Eigenvalues ---    0.24362   0.24412   0.24412   0.24412   0.24412
     Eigenvalues ---    0.24412   0.26916   0.26916   0.26916   0.26916
     Eigenvalues ---    0.26916   0.27517   0.27517   0.27518   0.27518
     Eigenvalues ---    0.31043   0.31044   0.31044   0.32907   0.32907
     Eigenvalues ---    0.32907   0.32907   0.32907   0.35423   0.35423
     Eigenvalues ---    0.35423   0.35423   0.41531   0.41531   0.41531
     Eigenvalues ---    0.41532   0.41639   0.41639   0.41640   0.44237
     Eigenvalues ---    0.44237   0.44237   0.44690   0.44690   0.44690
     Eigenvalues ---    0.46586   0.46586   0.46586   0.46587   0.60711
     Eigenvalues ---    0.62324   0.62325   0.62325   0.62325   0.62325
     Eigenvalues ---    0.67806   0.67806   0.67807   0.67808   0.75932
     Eigenvalues ---    0.75933   0.75933   0.84604   0.84604   0.84604
     Eigenvalues ---    0.84605   0.84605   0.87139   0.87139   0.87140
     Eigenvalues ---    0.94622   0.94623   0.94623   0.94624   0.94625
     Eigenvalues ---    0.99107   0.99108   0.99109   1.15818   1.15818
     Eigenvalues ---    1.15819   1.15819   1.15820   1.16343   1.16344
     Eigenvalues ---    1.16344   1.16344   1.21402   1.21402   1.21402
     Eigenvalues ---    1.21403   1.26898   1.26899   1.26899   1.37124
     Eigenvalues ---    1.40195   1.40195   1.40195   1.44470   1.44470
     Eigenvalues ---    1.44470   1.44471   1.44471   1.48921   1.48921
     Eigenvalues ---    1.48922   1.54397   1.54397   1.54398   1.54398
     Eigenvalues ---    1.55885   1.55885   1.55886   1.55887   1.64373
     Eigenvalues ---    1.64374   1.64375   1.64375   1.64375   1.64563
     Eigenvalues ---    1.64564   1.64565   1.64565   1.64565
 RFO step:  Lambda=-8.50608324D-03 EMin= 2.90538884D-02
 Linear search not attempted -- first point.
 B after Tr=     0.000000   -0.000000    0.000000
         Rot=    1.000000    0.000000   -0.000000    0.000000 Ang=   0.00 deg.
 Variable       Old X    -DE/DX   Delta X   Delta X   Delta X     New X
                                 (Linear)    (Quad)   (Total)
    X1       -2.54994   0.00769   0.00000   0.00611   0.00611  -2.54383
    Y1        1.50229  -0.01130   0.00000  -0.00729  -0.00729   1.49500
    Z1        0.00000  -0.00262   0.00000  -0.00436  -0.00436  -0.00436
    X2        0.21641  -0.00770   0.00000  -0.00632  -0.00632   0.21008
    Y2        1.50229  -0.01131   0.00000  -0.00719  -0.00719   1.49510
    Z2        0.00000  -0.00265   0.00000  -0.00458  -0.00458  -0.00458
    X3        1.52464   0.00595   0.00000   0.00309   0.00309   1.52773
    Y3        3.76845   0.01233   0.00000   0.00900   0.00900   3.77745
    Z3        0.00000  -0.00263   0.00000  -0.00464  -0.00464  -0.00464
    X4        0.14140   0.01365   0.00000   0.00928   0.00928   0.15067
    Y4        6.16416  -0.00104   0.00000  -0.00184  -0.00184   6.16232
    Z4       -0.00004  -0.00274   0.00000  -0.00495  -0.00495  -0.00498
    X5       -2.47525  -0.01365   0.00000  -0.00943  -0.00943  -2.48468
    Y5        6.16410  -0.00102   0.00000  -0.00172  -0.00172   6.16238
    Z5        0.00001  -0.00262   0.00000  -0.00451  -0.00451  -0.00450
    X6       -3.85835  -0.00594   0.00000  -0.00314  -0.00314  -3.86149
    Y6        3.76832   0.01234   0.00000   0.00899   0.00899   3.77731
    Z6        0.00004  -0.00268   0.00000  -0.00459  -0.00459  -0.00455
    X7       -3.40482   0.01244   0.00000   0.00995   0.00995  -3.39487
    Y7       -0.58847   0.00031   0.00000   0.00202   0.00202  -0.58646
    Z7       -1.59709   0.00625   0.00000   0.00276   0.00276  -1.59433
    X8       -1.16684   0.00003   0.00000  -0.00006  -0.00006  -1.16690
    Y8       -1.88058   0.00750   0.00000   0.00782   0.00782  -1.87276
    Z8       -2.58423   0.01174   0.00000   0.00705   0.00705  -2.57717
    X9        1.07127  -0.01249   0.00000  -0.01031  -0.01031   1.06096
    Y9       -0.58840   0.00036   0.00000   0.00235   0.00235  -0.58605
    Z9       -1.59717   0.00617   0.00000   0.00235   0.00235  -1.59482
   X10        3.18809   0.00959   0.00000   0.00480   0.00480   3.19289
   Y10       -0.29983   0.00336   0.00000   0.00437   0.00437  -0.29547
   Z10       -3.10799  -0.00949   0.00000  -0.00834  -0.00834  -3.11633
   X11        3.76256  -0.00652   0.00000  -0.00704  -0.00704   3.75551
   Y11        4.07349   0.01060   0.00000   0.00762   0.00762   4.08112
   Z11       -1.59729   0.00621   0.00000   0.00242   0.00242  -1.59487
   X12        1.52446   0.00592   0.00000   0.00315   0.00315   1.52761
   Y12        7.94981  -0.01095   0.00000  -0.00971  -0.00971   7.94010
   Z12       -1.59732   0.00624   0.00000   0.00253   0.00253  -1.59479
   X13        0.21601  -0.00770   0.00000  -0.00621  -0.00621   0.20980
   Y13        9.63881   0.00668   0.00000   0.00246   0.00246   9.64127
   Z13       -3.10804  -0.00948   0.00000  -0.00815  -0.00815  -3.11619
   X14       -2.55035   0.00773   0.00000   0.00622   0.00622  -2.54413
   Y14        9.63876   0.00664   0.00000   0.00231   0.00231   9.64107
   Z14       -3.10793  -0.00954   0.00000  -0.00815  -0.00815  -3.11608
   X15       -3.85854  -0.00599   0.00000  -0.00332  -0.00332  -3.86186
   Y15        7.94972  -0.01091   0.00000  -0.00955  -0.00955   7.94017
   Z15       -1.59711   0.00628   0.00000   0.00286   0.00286  -1.59424
   X16       -6.09659   0.00650   0.00000   0.00701   0.00701  -6.08957
   Y16        6.65751  -0.00377   0.00000  -0.00405  -0.00405   6.65346
   Z16       -2.58411   0.01170   0.00000   0.00700   0.00700  -2.57711
   X17       -6.09647   0.00656   0.00000   0.00708   0.00708  -6.08939
   Y17        4.07328   0.01061   0.00000   0.00755   0.00755   4.08083
   Z17       -1.59701   0.00623   0.00000   0.00249   0.00249  -1.59452
   X18       -6.90509  -0.00193   0.00000   0.00113   0.00113  -6.90397
   Y18        2.09568  -0.01002   0.00000  -0.00658  -0.00658   2.08910
   Z18       -3.10767  -0.00951   0.00000  -0.00822  -0.00822  -3.11589
   X19       -5.52182  -0.00964   0.00000  -0.00511  -0.00511  -5.52693
   Y19       -0.30004   0.00338   0.00000   0.00427   0.00427  -0.29577
   Z19       -3.10771  -0.00951   0.00000  -0.00817  -0.00817  -3.11588
   X20       -1.16694   0.00001   0.00000   0.00004   0.00004  -1.16690
   Y20       -2.81430  -0.00222   0.00000   0.00122   0.00122  -2.81307
   Z20       -5.02860  -0.01377   0.00000  -0.01050  -0.01050  -5.03909
   X21       -3.40499   0.01245   0.00000   0.01016   0.01016  -3.39483
   Y21       -2.50936  -0.00388   0.00000   0.00006   0.00006  -2.50929
   Z21       -6.62565  -0.00486   0.00000  -0.00332  -0.00332  -6.62898
   X22       -5.52189  -0.00958   0.00000  -0.00485  -0.00485  -5.52674
   Y22       -1.28716   0.00889   0.00000   0.00893   0.00893  -1.27823
   Z22       -5.69192   0.00485   0.00000   0.00334   0.00334  -5.68858
   X23       -6.90520  -0.00192   0.00000   0.00112   0.00112  -6.90407
   Y23        0.49846  -0.00112   0.00000   0.00058   0.00058   0.49904
   Z23       -7.28906   0.01378   0.00000   0.01051   0.01051  -7.27855
   X24       -7.76005   0.00284   0.00000   0.00509   0.00509  -7.75496
   Y24        2.58916  -0.01274   0.00000  -0.00881  -0.00881   2.58034
   Z24       -5.69187   0.00484   0.00000   0.00331   0.00331  -5.68857
   X25       -7.76015   0.00290   0.00000   0.00550   0.00550  -7.75465
   Y25        5.03355   0.01273   0.00000   0.00861   0.00861   5.04216
   Z25       -6.62558  -0.00487   0.00000  -0.00333  -0.00333  -6.62891
   X26       -6.90530  -0.00185   0.00000   0.00160   0.00160  -6.90370
   Y26        7.12430   0.00108   0.00000  -0.00086  -0.00086   7.12344
   Z26       -5.02848  -0.01376   0.00000  -0.01054  -0.01054  -5.03902
   X27       -5.52224  -0.00963   0.00000  -0.00497  -0.00497  -5.52721
   Y27        8.91002  -0.00882   0.00000  -0.00867  -0.00867   8.90135
   Z27       -6.62574  -0.00486   0.00000  -0.00330  -0.00330  -6.62904
   X28       -3.40532   0.01245   0.00000   0.01008   0.01008  -3.39523
   Y28       10.13230   0.00390   0.00000   0.00009   0.00009  10.13239
   Z28       -5.69218   0.00489   0.00000   0.00345   0.00345  -5.68874
   X29        3.76244  -0.00647   0.00000  -0.00678  -0.00678   3.75566
   Y29        6.65776  -0.00376   0.00000  -0.00390  -0.00390   6.65386
   Z29       -2.58446   0.01173   0.00000   0.00701   0.00701  -2.57745
   X30        1.07065  -0.01246   0.00000  -0.00998  -0.00998   1.06067
   Y30        8.21146  -0.00029   0.00000  -0.00199  -0.00199   8.20947
   Z30      -10.72090  -0.00624   0.00000  -0.00274  -0.00274 -10.72365
   X31        3.18765   0.00964   0.00000   0.00507   0.00507   3.19272
   Y31        7.92305  -0.00336   0.00000  -0.00425  -0.00425   7.91879
   Z31       -9.21031   0.00954   0.00000   0.00820   0.00820  -9.20211
   X32        4.57088   0.00193   0.00000  -0.00114  -0.00114   4.56974
   Y32        5.52735   0.01001   0.00000   0.00659   0.00659   5.53393
   Z32       -9.21030   0.00950   0.00000   0.00821   0.00821  -9.20208
   X33        3.76226  -0.00655   0.00000  -0.00708  -0.00708   3.75518
   Y33        3.54976  -0.01062   0.00000  -0.00756  -0.00756   3.54220
   Z33      -10.72099  -0.00621   0.00000  -0.00248  -0.00248 -10.72347
   X34        1.52421   0.00593   0.00000   0.00308   0.00308   1.52728
   Y34        3.85472  -0.01234   0.00000  -0.00900  -0.00900   3.84572
   Z34      -12.31806   0.00268   0.00000   0.00463   0.00463 -12.31343
   X35       -2.55058   0.00771   0.00000   0.00628   0.00628  -2.54430
   Y35        6.12070   0.01133   0.00000   0.00722   0.00722   6.12792
   Z35      -12.31794   0.00266   0.00000   0.00457   0.00457 -12.31337
   X36       -3.40543   0.01246   0.00000   0.01027   0.01027  -3.39517
   Y36        8.21142  -0.00037   0.00000  -0.00234  -0.00234   8.20908
   Z36      -10.72077  -0.00617   0.00000  -0.00235  -0.00235 -10.72312
   X37       -1.16741  -0.00000   0.00000   0.00007   0.00007  -1.16734
   Y37        9.50361  -0.00750   0.00000  -0.00782  -0.00782   9.49579
   Z37       -9.73376  -0.01174   0.00000  -0.00702  -0.00702  -9.74079
   X38       -1.16734   0.00002   0.00000  -0.00000  -0.00000  -1.16734
   Y38       10.43732   0.00222   0.00000  -0.00122  -0.00122  10.43610
   Z38       -7.28939   0.01377   0.00000   0.01052   0.01052  -7.27886
   X39        1.07077  -0.01246   0.00000  -0.01015  -0.01015   1.06062
   Y39       10.13233   0.00389   0.00000  -0.00003  -0.00003  10.13230
   Z39       -5.69226   0.00482   0.00000   0.00330   0.00330  -5.68896
   X40        3.18769   0.00957   0.00000   0.00484   0.00484   3.19253
   Y40        8.91017  -0.00888   0.00000  -0.00892  -0.00892   8.90125
   Z40       -6.62600  -0.00487   0.00000  -0.00337  -0.00337  -6.62936
   X41        5.42578  -0.00283   0.00000  -0.00506  -0.00506   5.42073
   Y41        5.03385   0.01276   0.00000   0.00883   0.00883   5.04267
   Z41       -6.62608  -0.00483   0.00000  -0.00332  -0.00332  -6.62940
   X42        5.42589  -0.00290   0.00000  -0.00547  -0.00547   5.42043
   Y42        2.58950  -0.01275   0.00000  -0.00862  -0.00862   2.58089
   Z42       -5.69235   0.00488   0.00000   0.00330   0.00330  -5.68905
   X43        4.57099   0.00187   0.00000  -0.00154  -0.00154   4.56945
   Y43        0.49871  -0.00105   0.00000   0.00088   0.00088   0.49959
   Z43       -7.28943   0.01374   0.00000   0.01050   0.01050  -7.27894
   X44        3.76233  -0.00648   0.00000  -0.00698  -0.00698   3.75535
   Y44        0.96551   0.00378   0.00000   0.00405   0.00405   0.96956
   Z44       -9.73383  -0.01170   0.00000  -0.00703  -0.00703  -9.74086
   X45        1.52435   0.00598   0.00000   0.00330   0.00330   1.52766
   Y45       -0.32668   0.01090   0.00000   0.00955   0.00955  -0.31713
   Z45      -10.72085  -0.00628   0.00000  -0.00287  -0.00287 -10.72372
   X46        0.14107   0.01364   0.00000   0.00940   0.00940   0.15047
   Y46        1.45893   0.00103   0.00000   0.00171   0.00171   1.46064
   Z46      -12.31796   0.00262   0.00000   0.00449   0.00449 -12.31347
   X47       -2.47558  -0.01365   0.00000  -0.00930  -0.00930  -2.48488
   Y47        1.45890   0.00104   0.00000   0.00182   0.00182   1.46071
   Z47      -12.31785   0.00273   0.00000   0.00490   0.00490 -12.31296
   X48       -3.85883  -0.00595   0.00000  -0.00310  -0.00310  -3.86193
   Y48        3.85460  -0.01234   0.00000  -0.00901  -0.00901   3.84558
   Z48      -12.31786   0.00262   0.00000   0.00457   0.00457 -12.31329
   X49       -5.52231  -0.00959   0.00000  -0.00481  -0.00481  -5.52712
   Y49        7.92287  -0.00336   0.00000  -0.00436  -0.00436   7.91850
   Z49       -9.20997   0.00948   0.00000   0.00834   0.00834  -9.20162
   X50       -6.90539  -0.00190   0.00000   0.00148   0.00148  -6.90391
   Y50        5.52709   0.01000   0.00000   0.00646   0.00646   5.53354
   Z50       -9.20988   0.00954   0.00000   0.00837   0.00837  -9.20151
   X51       -6.09681   0.00653   0.00000   0.00708   0.00708  -6.08973
   Y51        3.54953  -0.01059   0.00000  -0.00763  -0.00763   3.54190
   Z51      -10.72061  -0.00621   0.00000  -0.00246  -0.00246 -10.72307
   X52       -6.09671   0.00648   0.00000   0.00682   0.00682  -6.08989
   Y52        0.96528   0.00375   0.00000   0.00389   0.00389   0.96917
   Z52       -9.73349  -0.01174   0.00000  -0.00702  -0.00702  -9.74050
   X53       -3.85865  -0.00594   0.00000  -0.00315  -0.00315  -3.86181
   Y53       -0.32681   0.01096   0.00000   0.00972   0.00972  -0.31708
   Z53      -10.72065  -0.00624   0.00000  -0.00251  -0.00251 -10.72316
   X54       -2.55023   0.00770   0.00000   0.00621   0.00621  -2.54402
   Y54       -2.01580  -0.00670   0.00000  -0.00245  -0.00245  -2.01825
   Z54       -9.20999   0.00951   0.00000   0.00820   0.00820  -9.20179
   X55        0.21613  -0.00773   0.00000  -0.00622  -0.00622   0.20991
   Y55       -2.01576  -0.00663   0.00000  -0.00230  -0.00230  -2.01805
   Z55       -9.21005   0.00952   0.00000   0.00818   0.00818  -9.20187
   X56        1.07107  -0.01246   0.00000  -0.01005  -0.01005   1.06102
   Y56       -2.50922  -0.00391   0.00000  -0.00013  -0.00013  -2.50935
   Z56       -6.62588  -0.00486   0.00000  -0.00337  -0.00337  -6.62925
   X57        3.18798   0.00962   0.00000   0.00500   0.00500   3.19298
   Y57       -1.28695   0.00880   0.00000   0.00864   0.00864  -1.27831
   Z57       -5.69228   0.00489   0.00000   0.00334   0.00334  -5.68894
   X58        4.57092   0.00193   0.00000  -0.00109  -0.00109   4.56983
   Y58        7.12460   0.00110   0.00000  -0.00060  -0.00060   7.12400
   Z58       -5.02891  -0.01377   0.00000  -0.01051  -0.01051  -5.03942
   X59        4.57114   0.00190   0.00000  -0.00145  -0.00145   4.56969
   Y59        2.09596  -0.01001   0.00000  -0.00648  -0.00648   2.08949
   Z59       -3.10803  -0.00955   0.00000  -0.00841  -0.00841  -3.11644
   X60        0.21581  -0.00771   0.00000  -0.00618  -0.00618   0.20963
   Y60        6.12077   0.01128   0.00000   0.00726   0.00726   6.12804
   Z60      -12.31800   0.00261   0.00000   0.00439   0.00439 -12.31361
         Item               Value     Threshold  Converged?
 Maximum Force            0.013780     0.000450     NO 
 RMS     Force            0.008045     0.000300     NO 
 Maximum Displacement     0.010539     0.001800     NO 
 RMS     Displacement     0.006124     0.001200     NO 
 Predicted change in Energy=-4.281750D-03
 GradGradGradGradGradGradGradGradGradGradGradGradGradGradGradGradGradGrad

 Stoichiometry    C60
 Framework group  C1[X(C60)]
 Deg. of freedom   174
 Full point group                 C1      NOp   1
 Largest Abelian subgroup         C1      NOp   1
 Largest concise Abelian subgroup C1      NOp   1
                         Standard orientation:                         
 ---------------------------------------------------------------------
 Center     Atomic      Atomic             Coordinates (Angstroms)
 Number     Number       Type             X           Y           Z
 ---------------------------------------------------------------------
      1          6           0        2.485342   -2.518217   -0.349882
      2          6           0        2.286937   -2.100244   -1.731795
      3          6           0        2.708548   -0.836953   -2.145587
      4          6           0        3.347283    0.065261   -1.195991
      5          6           0        3.537305   -0.334697    0.126409
      6          6           0        3.096659   -1.654805    0.558768
      7          6           0        1.323685   -3.299330    0.055536
      8          6           0        0.407354   -3.364107   -1.075834
      9          6           0        1.002662   -2.622905   -2.180355
     10          6           0        0.195390   -1.859937   -3.023483
     11          6           0        1.864837   -0.039607   -3.026580
     12          6           0        2.898656    1.420198   -1.490271
     13          6           0        2.659103    2.316867   -0.449374
     14          6           0        2.857431    1.898867    0.932550
     15          6           0        3.287048    0.602315    1.214176
     16          6           0        2.691487   -0.138757    2.318690
     17          6           0        2.573911   -1.533691    1.913655
     18          6           0        1.462375   -2.281176    2.301697
     19          6           0        0.823482   -3.183325    1.352154
     20          6           0       -0.969670   -3.310159   -0.861909
     21          6           0       -1.492315   -3.188947    0.493009
     22          6           0       -0.615479   -3.126844    1.575631
     23          6           0       -0.865949   -2.190049    2.663443
     24          6           0        0.418241   -1.667264    3.112059
     25          6           0        0.530682   -0.332331    3.499416
     26          6           0        1.692267    0.448700    3.094033
     27          6           0        1.243601    1.803676    2.800018
     28          6           0        1.813332    2.512791    1.742972
     29          6           0        1.982422    1.355425   -2.621698
     30          6           0       -1.323694    3.299329   -0.055541
     31          6           0       -0.823496    3.183330   -1.352156
     32          6           0       -1.462378    2.281179   -2.301693
     33          6           0       -2.573924    1.533699   -1.913653
     34          6           0       -3.096669    1.654810   -0.558774
     35          6           0       -2.286935    2.100241    1.731792
     36          6           0       -1.002654    2.622906    2.180346
     37          6           0       -0.407350    3.364106    1.075845
     38          6           0        0.969671    3.310153    0.861919
     39          6           0        1.492323    3.188932   -0.493016
     40          6           0        0.615485    3.126839   -1.575635
     41          6           0       -0.418245    1.667258   -3.112052
     42          6           0       -0.530679    0.332337   -3.499410
     43          6           0       -1.692263   -0.448707   -3.094019
     44          6           0       -2.691494    0.138757   -2.318686
     45          6           0       -3.287046   -0.602308   -1.214181
     46          6           0       -3.537314    0.334697   -0.126413
     47          6           0       -3.347272   -0.065261    1.195982
     48          6           0       -2.708533    0.836952    2.145577
     49          6           0       -0.195383    1.859937    3.023487
     50          6           0       -0.635929    0.539854    3.455830
     51          6           0       -1.864828    0.039600    3.026575
     52          6           0       -1.982416   -1.355426    2.621701
     53          6           0       -2.898657   -1.420201    1.490259
     54          6           0       -2.659113   -2.316868    0.449374
     55          6           0       -2.857428   -1.898873   -0.932553
     56          6           0       -1.813342   -2.512783   -1.742968
     57          6           0       -1.243606   -1.803667   -2.800012
     58          6           0        0.865950    2.190052   -2.663430
     59          6           0        0.635936   -0.539856   -3.455828
     60          6           0       -2.485341    2.518226    0.349876
 ---------------------------------------------------------------------
 Rotational constants (GHZ):           0.0832996           0.0832990           0.0832959
 Standard basis: CC-pVDZ (5D, 7F)
 There are   900 symmetry adapted cartesian basis functions of A   symmetry.
 There are   840 symmetry adapted basis functions of A   symmetry.
   840 basis functions,  1980 primitive gaussians,   900 cartesian basis functions
   180 alpha electrons      180 beta electrons
       nuclear repulsion energy      8314.3267042437 Hartrees.
 NAtoms=   60 NActive=   60 NUniq=   60 SFac= 1.00D+00 NAtFMM=   60 NAOKFM=T Big=T
 Integral buffers will be    131072 words long.
 Raffenetti 2 integral format.
 Two-electron integral symmetry is turned on.
 One-electron integrals computed using PRISM.
 NBasis=   840 RedAO= T EigKep=  1.23D-04  NBF=   840
 NBsUse=   840 1.00D-06 EigRej= -1.00D+00 NBFU=   840
 Initial guess from the checkpoint file:  "C60-opt.chk"
 B after Tr=     0.000000    0.000000   -0.000000
         Rot=    0.858580   -0.198884    0.374112   -0.288662 Ang= -61.68 deg.
 Requested convergence on RMS density matrix=1.00D-08 within 128 cycles.
 Requested convergence on MAX density matrix=1.00D-06.
 Requested convergence on             energy=1.00D-06.
 No special actions if energy rises.
 SCF Done:  E(RB3LYP) =  -2286.31531656     A.U. after    9 cycles
            NFock=  9  Conv=0.65D-08     -V/T= 2.0062
 Calling FoFJK, ICntrl=      2127 FMM=T ISym2X=0 I1Cent= 0 IOpClX= 0 NMat=1 NMatS=1 NMatT=0.
 ***** Axes restored to original set *****
 -------------------------------------------------------------------
 Center     Atomic                   Forces (Hartrees/Bohr)
 Number     Number              X              Y              Z
 -------------------------------------------------------------------
      1        6           0.001827233   -0.002719534   -0.000612550
      2        6          -0.001831599   -0.002655048   -0.000699637
      3        6           0.001366353    0.002904480   -0.000651385
      4        6           0.003217703   -0.000235659   -0.000561070
      5        6          -0.003212842   -0.000236050   -0.000642810
      6        6          -0.001420752    0.002895324   -0.000588563
      7        6           0.002923812    0.000091517    0.001510471
      8        6           0.000007410    0.001754117    0.002795731
      9        6          -0.002947789    0.000109082    0.001530061
     10        6           0.002271064    0.000778495   -0.002251795
     11        6          -0.001487869    0.002545583    0.001535671
     12        6           0.001397339   -0.002590699    0.001446265
     13        6          -0.001826844    0.001506995   -0.002248531
     14        6           0.001795948    0.001656137   -0.002228670
     15        6          -0.001376837   -0.002619426    0.001468423
     16        6           0.001530524   -0.000888596    0.002830013
     17        6           0.001535012    0.002517867    0.001463109
     18        6          -0.000447694   -0.002350198   -0.002248249
     19        6          -0.002266589    0.000781562   -0.002282950
     20        6          -0.000000283   -0.000513186   -0.003287589
     21        6           0.002933317   -0.000968255   -0.001168696
     22        6          -0.002320377    0.002021919    0.001157175
     23        6          -0.000490122   -0.000267247    0.003239457
     24        6           0.000698996   -0.003024333    0.001176668
     25        6           0.000609315    0.003032726   -0.001148174
     26        6          -0.000569472    0.000319562   -0.003267227
     27        6          -0.002262246   -0.002093058   -0.001155513
     28        6           0.002986215    0.000978338    0.001164696
     29        6          -0.001596492   -0.000919795    0.002768007
     30        6          -0.002930212   -0.000083269   -0.001506689
     31        6           0.002267041   -0.000777862    0.002294814
     32        6           0.000448429    0.002345658    0.002244948
     33        6          -0.001531598   -0.002519108   -0.001457296
     34        6           0.001416870   -0.002892551    0.000587253
     35        6           0.001836007    0.002662678    0.000702484
     36        6           0.002937618   -0.000113706   -0.001532929
     37        6           0.000005217   -0.001755959   -0.002796525
     38        6           0.000012004    0.000513455    0.003287861
     39        6          -0.002938418    0.000972239    0.001154525
     40        6           0.002316196   -0.002020312   -0.001168237
     41        6          -0.000700368    0.003034602   -0.001176474
     42        6          -0.000612873   -0.003043212    0.001151162
     43        6           0.000576378   -0.000309620    0.003260902
     44        6          -0.001526990    0.000891307   -0.002826127
     45        6           0.001369896    0.002610649   -0.001467384
     46        6           0.003213591    0.000239945    0.000643876
     47        6          -0.003217847    0.000234144    0.000559452
     48        6          -0.001368865   -0.002910686    0.000650283
     49        6          -0.002267046   -0.000779039    0.002245384
     50        6          -0.000507696    0.002380385    0.002225034
     51        6           0.001488879   -0.002540773   -0.001537249
     52        6           0.001602148    0.000916002   -0.002771595
     53        6          -0.001406659    0.002598806   -0.001447217
     54        6           0.001828603   -0.001512550    0.002262469
     55        6          -0.001793493   -0.001649303    0.002215544
     56        6          -0.002990951   -0.000981108   -0.001151712
     57        6           0.002257402    0.002089352    0.001164206
     58        6           0.000495818    0.000257271   -0.003233835
     59        6           0.000508689   -0.002380194   -0.002227705
     60        6          -0.001830202    0.002710137    0.000608436
 -------------------------------------------------------------------
 Cartesian Forces:  Max     0.003287861 RMS     0.001906862

 GradGradGradGradGradGradGradGradGradGradGradGradGradGradGradGradGradGrad
 Berny optimization.
 Search for a local minimum.
 Step number   2 out of a maximum of  190
 All quantities printed in internal units (Hartrees-Bohrs-Radians)
 Update second derivatives using D2CorN and points    1    2
 DE= -5.27D-03 DEPred=-4.28D-03 R= 1.23D+00
 TightC=F SS=  1.41D+00  RLast= 8.22D-02 DXNew= 5.0454D-01 2.4648D-01
 Trust test= 1.23D+00 RLast= 8.22D-02 DXMaxT set to 3.00D-01
 ITU=  1  0
     Eigenvalues ---    0.02905   0.02905   0.02905   0.02905   0.02906
     Eigenvalues ---    0.06021   0.06021   0.06021   0.06229   0.06229
     Eigenvalues ---    0.06229   0.06229   0.06272   0.06272   0.06272
     Eigenvalues ---    0.06272   0.06273   0.09469   0.10141   0.10141
     Eigenvalues ---    0.10141   0.10141   0.10143   0.11058   0.11058
     Eigenvalues ---    0.11058   0.11059   0.14471   0.14471   0.14471
     Eigenvalues ---    0.14541   0.14541   0.14541   0.14541   0.14541
     Eigenvalues ---    0.15302   0.15302   0.15302   0.15302   0.16407
     Eigenvalues ---    0.16407   0.16407   0.17250   0.17250   0.17250
     Eigenvalues ---    0.21032   0.21032   0.21033   0.23966   0.23966
     Eigenvalues ---    0.23966   0.23966   0.23968   0.24362   0.24362
     Eigenvalues ---    0.24362   0.24412   0.24412   0.24412   0.24412
     Eigenvalues ---    0.24412   0.26916   0.26916   0.26916   0.26916
     Eigenvalues ---    0.26916   0.27517   0.27517   0.27518   0.27518
     Eigenvalues ---    0.31043   0.31044   0.31044   0.32907   0.32907
     Eigenvalues ---    0.32907   0.32907   0.32907   0.35423   0.35423
     Eigenvalues ---    0.35423   0.35423   0.41531   0.41531   0.41531
     Eigenvalues ---    0.41532   0.41639   0.41639   0.41640   0.44237
     Eigenvalues ---    0.44237   0.44238   0.44690   0.44690   0.44690
     Eigenvalues ---    0.46586   0.46586   0.46586   0.46587   0.60711
     Eigenvalues ---    0.62324   0.62325   0.62325   0.62325   0.62325
     Eigenvalues ---    0.67806   0.67806   0.67807   0.67808   0.75932
     Eigenvalues ---    0.75933   0.75933   0.84604   0.84604   0.84604
     Eigenvalues ---    0.84605   0.84605   0.87139   0.87139   0.87140
     Eigenvalues ---    0.94622   0.94623   0.94623   0.94624   0.94625
     Eigenvalues ---    0.99107   0.99108   0.99109   1.08500   1.15818
     Eigenvalues ---    1.15818   1.15819   1.15819   1.15820   1.16343
     Eigenvalues ---    1.16344   1.16344   1.16344   1.21402   1.21402
     Eigenvalues ---    1.21402   1.21403   1.26898   1.26899   1.26899
     Eigenvalues ---    1.40195   1.40195   1.40195   1.44470   1.44470
     Eigenvalues ---    1.44470   1.44471   1.44471   1.48921   1.48921
     Eigenvalues ---    1.48922   1.54397   1.54397   1.54398   1.54398
     Eigenvalues ---    1.55885   1.55885   1.55886   1.55887   1.64373
     Eigenvalues ---    1.64374   1.64375   1.64375   1.64375   1.64563
     Eigenvalues ---    1.64564   1.64565   1.64565   1.64565
 RFO step:  Lambda=-2.72233675D-06 EMin= 2.90517578D-02
 Quartic linear search produced a step of  0.30472.
 B after Tr=     0.000000   -0.000000    0.000000
         Rot=    1.000000    0.000000   -0.000000    0.000000 Ang=   0.00 deg.
 Variable       Old X    -DE/DX   Delta X   Delta X   Delta X     New X
                                 (Linear)    (Quad)   (Total)
    X1       -2.54383   0.00183   0.00186  -0.00011   0.00175  -2.54208
    Y1        1.49500  -0.00272  -0.00222  -0.00012  -0.00234   1.49267
    Z1       -0.00436  -0.00061  -0.00133  -0.00003  -0.00136  -0.00572
    X2        0.21008  -0.00183  -0.00193  -0.00003  -0.00196   0.20812
    Y2        1.49510  -0.00266  -0.00219   0.00013  -0.00206   1.49304
    Z2       -0.00458  -0.00070  -0.00140  -0.00056  -0.00195  -0.00654
    X3        1.52773   0.00137   0.00094   0.00004   0.00098   1.52870
    Y3        3.77745   0.00290   0.00274  -0.00000   0.00274   3.78019
    Z3       -0.00464  -0.00065  -0.00141  -0.00031  -0.00173  -0.00637
    X4        0.15067   0.00322   0.00283  -0.00001   0.00282   0.15349
    Y4        6.16232  -0.00024  -0.00056   0.00008  -0.00048   6.16184
    Z4       -0.00498  -0.00056  -0.00151   0.00028  -0.00123  -0.00621
    X5       -2.48468  -0.00321  -0.00287  -0.00006  -0.00293  -2.48761
    Y5        6.16238  -0.00024  -0.00052   0.00001  -0.00052   6.16187
    Z5       -0.00450  -0.00064  -0.00138  -0.00010  -0.00148  -0.00598
    X6       -3.86149  -0.00142  -0.00096  -0.00024  -0.00120  -3.86269
    Y6        3.77731   0.00290   0.00274  -0.00006   0.00268   3.77999
    Z6       -0.00455  -0.00059  -0.00140   0.00020  -0.00120  -0.00574
    X7       -3.39487   0.00292   0.00303  -0.00013   0.00290  -3.39197
    Y7       -0.58646   0.00009   0.00061  -0.00018   0.00044  -0.58602
    Z7       -1.59433   0.00151   0.00084   0.00003   0.00087  -1.59346
    X8       -1.16690   0.00001  -0.00002   0.00009   0.00007  -1.16683
    Y8       -1.87276   0.00175   0.00238  -0.00023   0.00215  -1.87060
    Z8       -2.57717   0.00280   0.00215   0.00007   0.00222  -2.57495
    X9        1.06096  -0.00295  -0.00314   0.00030  -0.00284   1.05812
    Y9       -0.58605   0.00011   0.00072  -0.00010   0.00062  -0.58542
    Z9       -1.59482   0.00153   0.00072   0.00004   0.00076  -1.59406
   X10        3.19289   0.00227   0.00146   0.00059   0.00206   3.19495
   Y10       -0.29547   0.00078   0.00133  -0.00027   0.00106  -0.29441
   Z10       -3.11633  -0.00225  -0.00254   0.00011  -0.00243  -3.11876
   X11        3.75551  -0.00149  -0.00215   0.00075  -0.00139   3.75412
   Y11        4.08112   0.00255   0.00232  -0.00008   0.00224   4.08336
   Z11       -1.59487   0.00154   0.00074   0.00030   0.00104  -1.59383
   X12        1.52761   0.00140   0.00096  -0.00015   0.00081   1.52842
   Y12        7.94010  -0.00259  -0.00296  -0.00020  -0.00316   7.93694
   Z12       -1.59479   0.00145   0.00077  -0.00025   0.00052  -1.59427
   X13        0.20980  -0.00183  -0.00189  -0.00014  -0.00203   0.20777
   Y13        9.64127   0.00151   0.00075  -0.00016   0.00059   9.64186
   Z13       -3.11619  -0.00225  -0.00248  -0.00019  -0.00267  -3.11886
   X14       -2.54413   0.00180   0.00190  -0.00030   0.00159  -2.54254
   Y14        9.64107   0.00166   0.00070   0.00066   0.00136   9.64244
   Z14       -3.11608  -0.00223  -0.00248   0.00012  -0.00236  -3.11844
   X15       -3.86186  -0.00138  -0.00101  -0.00013  -0.00114  -3.86301
   Y15        7.94017  -0.00262  -0.00291   0.00009  -0.00282   7.93735
   Z15       -1.59424   0.00147   0.00087  -0.00020   0.00067  -1.59357
   X16       -6.08957   0.00153   0.00214  -0.00079   0.00135  -6.08822
   Y16        6.65346  -0.00089  -0.00123   0.00044  -0.00079   6.65267
   Z16       -2.57711   0.00283   0.00213   0.00021   0.00234  -2.57477
   X17       -6.08939   0.00154   0.00216  -0.00037   0.00178  -6.08761
   Y17        4.08083   0.00252   0.00230   0.00015   0.00245   4.08329
   Z17       -1.59452   0.00146   0.00076   0.00008   0.00084  -1.59368
   X18       -6.90397  -0.00045   0.00034  -0.00016   0.00018  -6.90379
   Y18        2.08910  -0.00235  -0.00201   0.00008  -0.00192   2.08717
   Z18       -3.11589  -0.00225  -0.00250   0.00001  -0.00250  -3.11839
   X19       -5.52693  -0.00227  -0.00156  -0.00017  -0.00173  -5.52866
   Y19       -0.29577   0.00078   0.00130  -0.00021   0.00109  -0.29468
   Z19       -3.11588  -0.00228  -0.00249  -0.00007  -0.00256  -3.11844
   X20       -1.16690  -0.00000   0.00001  -0.00001   0.00001  -1.16689
   Y20       -2.81307  -0.00051   0.00037  -0.00027   0.00010  -2.81297
   Z20       -5.03909  -0.00329  -0.00320  -0.00001  -0.00321  -5.04230
   X21       -3.39483   0.00293   0.00310  -0.00029   0.00281  -3.39202
   Y21       -2.50929  -0.00097   0.00002  -0.00060  -0.00058  -2.50988
   Z21       -6.62898  -0.00117  -0.00101  -0.00001  -0.00102  -6.62999
   X22       -5.52674  -0.00232  -0.00148  -0.00063  -0.00211  -5.52885
   Y22       -1.27823   0.00202   0.00272  -0.00076   0.00196  -1.27627
   Z22       -5.68858   0.00116   0.00102  -0.00001   0.00101  -5.68757
   X23       -6.90407  -0.00049   0.00034  -0.00040  -0.00006  -6.90413
   Y23        0.49904  -0.00027   0.00018  -0.00008   0.00010   0.49914
   Z23       -7.27855   0.00324   0.00320   0.00002   0.00322  -7.27532
   X24       -7.75496   0.00070   0.00155  -0.00047   0.00109  -7.75387
   Y24        2.58034  -0.00302  -0.00269   0.00016  -0.00253   2.57782
   Z24       -5.68857   0.00118   0.00101   0.00008   0.00109  -5.68748
   X25       -7.75465   0.00061   0.00168  -0.00146   0.00022  -7.75444
   Y25        5.04216   0.00303   0.00262   0.00041   0.00304   5.04519
   Z25       -6.62891  -0.00115  -0.00101   0.00001  -0.00100  -6.62991
   X26       -6.90370  -0.00057   0.00049  -0.00161  -0.00112  -6.90482
   Y26        7.12344   0.00032  -0.00026   0.00086   0.00060   7.12404
   Z26       -5.03902  -0.00327  -0.00321   0.00020  -0.00301  -5.04203
   X27       -5.52721  -0.00226  -0.00151  -0.00055  -0.00207  -5.52927
   Y27        8.90135  -0.00209  -0.00264   0.00047  -0.00218   8.89918
   Z27       -6.62904  -0.00116  -0.00101   0.00003  -0.00098  -6.63002
   X28       -3.39523   0.00299   0.00307  -0.00027   0.00281  -3.39243
   Y28       10.13239   0.00098   0.00003   0.00060   0.00062  10.13301
   Z28       -5.68874   0.00116   0.00105  -0.00001   0.00104  -5.68769
   X29        3.75566  -0.00160  -0.00207  -0.00004  -0.00210   3.75356
   Y29        6.65386  -0.00092  -0.00119  -0.00020  -0.00139   6.65247
   Z29       -2.57745   0.00277   0.00214  -0.00018   0.00196  -2.57549
   X30        1.06067  -0.00293  -0.00304   0.00014  -0.00290   1.05776
   Y30        8.20947  -0.00008  -0.00061   0.00017  -0.00043   8.20904
   Z30      -10.72365  -0.00151  -0.00084  -0.00003  -0.00086 -10.72451
   X31        3.19272   0.00227   0.00154   0.00018   0.00172   3.19444
   Y31        7.91879  -0.00078  -0.00130   0.00020  -0.00109   7.91770
   Z31       -9.20211   0.00229   0.00250   0.00008   0.00258  -9.19952
   X32        4.56974   0.00045  -0.00035   0.00017  -0.00018   4.56957
   Y32        5.53393   0.00235   0.00201  -0.00009   0.00192   5.53585
   Z32       -9.20208   0.00224   0.00250   0.00001   0.00251  -9.19957
[...]
 0041697,0.00295913,-0.00314025,0.00723574,0.00107071,-0.02614945,0.014
 20693,-0.00044225,-0.10099860,0.05968629,-0.03486039,-0.06677839,0.046
 08230,0.03062298,-0.00178404,0.01475367,-0.00691466,0.00555272,-0.0022
 2010,-0.00059979,-0.00094711,0.00274125,-0.00230408,0.00052675,0.00048
 387,0.00015660,0.00018860,0.00055893,-0.00026753,-0.00021841,0.0000085
 1,0.00013354,0.00026762,-0.00023936,-0.00010940,0.00047035,-0.00012125
 ,0.00030804,-0.00029306,-0.00083147,-0.00105240,-0.00023917,0.00112786
 ,0.00059456,0.00017478,-0.00101561,-0.00031763,-0.00064998,0.00105369,
 -0.00013666,0.00080906,-0.00071841,0.00042836,-0.00054635,0.00039455,-
 0.00018906,0.00052096,0.00054694,0.00015481,0.00021169,0.00026301,-0.0
 0001770,0.27907204,-0.00109429,-0.00056313,-0.00009802,-0.00054951,0.0
 0376545,0.00059473,-0.00130543,-0.00594499,0.00315006,0.00826884,0.001
 31441,-0.00218428,-0.00518163,0.00427567,-0.00125703,0.00113717,0.0002
 9858,-0.00025476,0.00043247,0.00042934,0.00023960,0.00079603,0.0008810
 7,0.00086920,0.00200549,-0.00234130,-0.00254306,-0.00199044,-0.0009325
 9,-0.00032219,-0.01523080,0.00450996,0.02097068,-0.01145640,0.01940075
 ,-0.01268522,-0.00334637,-0.00853324,0.01792826,0.00415254,-0.00002005
 ,0.00056585,0.00073553,-0.00316728,0.00425918,-0.00077648,-0.00028507,
 -0.00125301,-0.00066397,-0.00021945,-0.00032126,0.00029943,0.00010815,
 0.00016264,-0.00032621,-0.00039030,-0.00050803,0.00034461,-0.00058687,
 -0.00184929,-0.00006181,0.00004461,0.00078592,0.00065153,-0.00040581,0
 .00072823,-0.00035572,0.00110821,-0.00012099,-0.00018586,-0.00081168,-
 0.00038052,0.00041134,0.00037046,-0.00048933,-0.00031008,-0.00064761,0
 .00182189,0.00099724,0.00048120,-0.00041614,0.00066496,-0.00023687,0.0
 0066636,0.02028823,-0.11273342,0.04567721,-0.00666761,0.00194855,-0.00
 480455,0.00149365,0.00816193,0.01722032,-0.00573861,0.00236202,-0.0230
 6456,0.00455249,0.00758238,0.00341014,-0.00039924,0.00191801,0.0000111
 1,0.00075222,-0.00052297,-0.00048547,0.00093501,0.00058677,0.00054942,
 0.00282871,-0.00229366,-0.00436820,0.00279740,0.00265297,-0.00130545,0
 .02881758,-0.01847684,-0.00773795,0.06619583,-0.12755112,0.05547935,0.
 03960904,-0.16219742,-0.05794620,0.00012110,-0.04286110,0.00349091,0.0
 0221881,-0.00603562,0.00157743,-0.00049996,-0.00244149,0.00474478,-0.0
 0103531,-0.00019435,-0.00082952,0.00048179,-0.00085501,0.00050655,0.00
 004141,0.00040030,-0.00020369,-0.00027202,-0.00008579,0.00021755,-0.00
 019186,-0.00070433,-0.00039599,-0.00008289,0.00170338,0.00110215,0.000
 81750,-0.00190991,-0.00050112,-0.00101552,0.00134707,-0.00018350,0.001
 36560,-0.00149957,0.00076579,-0.00146729,0.00060200,-0.00146347,0.0004
 6478,0.00031289,0.00046742,-0.00092856,-0.00029770,0.00110073,0.000110
 43,-0.00093291,-0.00136205,-0.14146612,0.44243436,0.00115261,-0.000485
 31,0.00017559,0.00021456,0.00798810,0.00200947,-0.00953043,-0.00114456
 ,0.00739268,-0.00575199,-0.00767914,0.00738740,0.00702208,-0.00380860,
 0.00200395,0.00015405,0.00124039,0.00017731,-0.00035779,-0.00006976,-0
 .00039994,-0.00004387,-0.00044502,-0.00053419,0.00337168,-0.00310094,-
 0.00468699,-0.00359975,-0.00430652,-0.00128210,0.00314430,0.04171746,-
 0.02103733,0.03771526,-0.01809640,-0.02101000,0.00205406,0.01043560,-0
 .02054268,-0.00552676,-0.00096412,-0.00128191,-0.00099959,0.00446699,-
 0.00468504,-0.00040762,0.00018400,-0.00053323,-0.00023971,-0.00027375,
 -0.00039846,0.00039301,0.00040894,0.00074696,0.00055051,0.00013559,0.0
 0074756,0.00211935,0.00002705,0.00004649,-0.00150346,0.00053995,-0.001
 94141,0.00035801,-0.00045438,-0.00079329,-0.00021000,-0.00012070,0.000
 30114,-0.00021386,0.00053690,-0.00079280,-0.00028432,-0.00157166,-0.00
 194189,0.00108369,0.00182064,0.00004632,-0.00076216,-0.00058036,-0.000
 28999,0.00032612,0.00114216,0.00177388,0.08542657,0.04931124,-0.290229
 08,0.00880320,-0.00667840,-0.00153434,-0.02146207,0.00818617,-0.048785
 51,-0.00365245,-0.02270169,-0.04877307,-0.00138489,0.01096405,-0.00153
 369,-0.00038849,-0.00146116,-0.00028352,-0.00009719,-0.00091538,-0.000
 03900,-0.00168472,-0.00039295,0.00053635,-0.00183984,0.00114741,0.0024
 0614,0.00166395,-0.00027151,-0.00149023,-0.01178492,0.00421713,0.03213
 531,-0.02699968,0.03777899,-0.13908709,0.01920195,-0.04231863,-0.13908
 570,-0.00225646,-0.01229992,0.03214201,0.00059410,0.00157972,-0.001489
 65,0.00007485,-0.00216834,0.00240626,-0.00118065,-0.00125970,0.0005368
 7,-0.00084181,0.00037309,-0.00003863,0.00040280,0.00054400,-0.00050496
 ,0.00067264,0.00007672,-0.00050481,0.00081191,0.00136119,0.00030539,-0
 .00133910,-0.00202436,0.00067242,-0.00055488,0.00030917,0.00082370,-0.
 00000378,-0.00000221,0.00000439,-0.00000931,-0.00063582,0.00082311,-0.
 00242375,-0.00014659,0.00067204,0.00158472,0.00002112,0.00030718,-0.00
 088543,-0.00036954,-0.00029035,0.00115133,-0.00028603,0.00177662,-0.08
 048189,-0.04642029,0.67827775,0.00031502,0.00106163,-0.00101125,0.0006
 0367,-0.00681754,0.00052779,-0.01084100,0.01622517,0.00816253,-0.00192
 989,-0.00056445,0.00369507,0.00045841,0.00016192,-0.00020084,-0.000759
 42,-0.00145864,0.00066503,-0.00048769,-0.00117839,-0.00054588,-0.00313
 815,-0.00467976,0.00562022,-0.02616386,-0.01082868,0.00912951,-0.10136
 672,-0.06762355,0.01362672,-0.08932283,0.03759291,0.07255326,0.0053320
 6,-0.00350263,0.00219620,0.00096636,0.00334026,-0.00447727,0.00032188,
 -0.00071057,0.00016344,-0.00053963,0.00027156,-0.00059262,0.00029524,0
 .00001732,0.00010688,0.00089044,0.00009507,0.00029163,-0.00056486,-0.0
 0095254,-0.00060099,-0.00025506,0.00104499,0.00045102,-0.00109787,0.00
 228388,0.00193089,-0.00025363,0.00000995,-0.00086834,0.00047148,0.0002
 9741,0.00014805,-0.00029334,-0.00008269,-0.00133836,0.00024596,0.00032
 205,0.00054821,-0.00013706,0.00010290,0.00074065,-0.00040533,-0.000299
 44,-0.00039329,0.00009171,-0.00008012,-0.00007122,-0.00035295,0.000061
 02,-0.00036583,0.00400726,0.01323824,-0.01519769,0.00052157,-0.0003033
 6,0.00047993,0.00020946,-0.00020672,0.00015971,0.00554561,0.00125636,-
 0.00192432,-0.00094876,-0.00357927,0.00011076,0.00052691,-0.00025720,0
 .00043787,0.00080800,0.00082060,-0.00015946,0.00057162,-0.00024087,0.0
 0006560,-0.00062753,0.00089552,0.00058882,-0.00027432,-0.00055212,-0.0
 0077325,-0.00158289,0.00139905,0.00337872,0.00122671,-0.00238900,0.002
 76580,-0.00176788,-0.01559105,0.00467456,-0.06606275,-0.01413438,0.053
 59862,0.00569378,0.00576502,0.00364976,0.00072549,0.00015913,-0.004941
 70,-0.00058253,-0.00054704,-0.00075638,0.00018800,-0.00059545,0.000172
 59,-0.00021816,0.00008184,0.00010554,-0.00065028,-0.00087652,0.0006011
 7,-0.00054387,-0.00004856,0.00001875,0.00069717,0.00012505,-0.00039280
 ,0.00017418,0.00054480,-0.00091436,-0.00023890,-0.00044418,0.00119593,
 0.00026779,0.00010484,-0.00024049,-0.00014450,-0.00029863,0.00067696,0
 .00107764,0.00070706,-0.00124487,0.00636265,-0.00019393,0.00173678,-0.
 00009439,-0.00929536,-0.01408685,-0.00536024,0.00886857,0.01011530,0.2
 7895679,-0.00678181,-0.00038287,-0.00137045,0.00384990,-0.02799212,-0.
 01125365,0.03367639,0.01675743,-0.02106149,-0.00999766,0.00891412,0.00
 081566,0.00854392,0.00578479,-0.00212413,-0.00121405,-0.00818184,-0.00
 113643,-0.00027722,-0.00023996,0.00113718,-0.00097086,0.00159946,-0.00
 145468,-0.02933562,0.00579271,0.03130752,-0.06727969,-0.17900255,-0.01
 971360,0.04175187,-0.23878101,-0.09167601,-0.00537977,-0.00101978,0.00
 436744,0.00055179,-0.00127784,0.00234573,0.00158564,0.00005507,0.00020
 606,-0.00074383,-0.00024504,0.00063482,0.00033478,-0.00000394,-0.00003
 331,0.00030720,0.00013499,0.00065400,0.00095325,-0.00214862,0.00014253
 ,-0.00125017,0.00063526,-0.00040902,-0.00333109,0.00139863,0.00526964,
 -0.00181898,0.00048646,-0.00050470,0.00068567,-0.00073441,0.00132600,-
 0.00083149,0.00170328,-0.00202489,-0.00049590,0.00036729,-0.00157537,-
 0.00000398,-0.00088198,0.00045975,0.00003887,0.00010739,0.00041073,0.0
 0061187,0.00030109,0.00090759,-0.00056136,-0.00002246,-0.00057651,0.01
 345175,-0.03794428,-0.00589814,0.00010043,-0.00065776,-0.00077296,0.00
 068723,0.00108989,0.00197719,-0.00125151,-0.00558340,0.00208328,0.0004
 2312,-0.00156842,-0.00119254,-0.00001544,0.00116977,0.00026532,-0.0005
 2154,0.00143331,0.00078272,-0.00095544,-0.00149724,-0.00118300,0.00115
 652,0.00060017,0.00135376,-0.00062164,0.00004017,-0.00138295,0.0007516
 8,-0.00057923,-0.00113095,-0.00091585,0.00121266,-0.00190814,-0.001596
 58,-0.00513153,0.02986467,-0.01682860,-0.10206328,0.02489157,0.0018960
 4,0.00235324,-0.02269854,-0.00431572,-0.00361125,-0.00155243,0.0000395
 1,0.00166152,-0.00174893,-0.00092047,-0.00092986,0.00028959,0.00023764
 ,-0.00017124,-0.00009436,-0.00102433,-0.00053167,0.00044664,-0.0002470
 9,-0.00071476,-0.00079845,0.00012507,0.00087020,-0.00038823,0.00075407
 ,0.00084277,-0.00056633,-0.00097866,-0.00059970,0.00177398,0.00065101,
 -0.00041820,-0.00029517,-0.00062495,0.00038898,0.00010376,-0.00018694,
 0.00022157,0.00035760,0.01082991,0.00610652,-0.00203054,-0.01543646,-0
 .02971270,-0.03421344,0.00011034,-0.00257798,-0.00345468,0.05189921,0.
 59310968,-0.00135224,0.00016230,-0.00091866,-0.00070064,-0.00379104,-0
 .00109277,0.02044328,-0.01567385,-0.01841178,0.00122685,0.00631257,-0.
 00021623,0.00177731,0.00042842,0.00049534,-0.00025421,-0.00134470,0.00
 032697,0.00068627,0.00066214,0.00177829,0.00310830,-0.00248857,-0.0004
 3140,0.01042781,0.01941420,0.00787060,0.02387720,-0.00209535,-0.087604
 98,0.07709609,-0.09518752,-0.16417933,-0.00797324,0.00865490,0.0024559
 5,-0.00020853,-0.00504682,0.00705029,0.00013165,0.00059396,-0.00044232
 ,0.00087455,-0.00086460,0.00072240,-0.00062240,-0.00008019,-0.00061535
 ,-0.00082133,-0.00078325,-0.00095491,0.00060053,0.00014330,0.00154799,
 0.00009690,-0.00024504,-0.00044193,0.00051321,-0.00024419,-0.00128235,
 -0.00063089,0.00043821,0.00063563,0.00047628,-0.00043083,0.00033603,-0
 .00105243,0.00110223,0.00067312,0.00006280,-0.00049388,-0.00193731,-0.
 00028386,-0.00045725,-0.00072403,0.00049266,0.00016168,0.00074734,0.00
 019423,0.00026415,0.00005696,0.00002132,-0.00026595,0.00005204,-0.0077
 9295,-0.02659717,0.02151507,-0.00127543,0.00070024,0.00007185,0.000928
 51,0.00089922,-0.00024850,0.00192560,0.00208151,-0.00193635,-0.0002807
 8,0.00572005,0.00153657,-0.00157222,0.00069471,-0.00082846,-0.00278527
 ,-0.00053502,-0.00015853,-0.00116133,-0.00093856,-0.00039988,0.0018083
 3,-0.00052225,-0.00113974,0.00049681,-0.00006889,0.00030522,0.00385019
 ,-0.00057524,-0.00644738,-0.00401370,0.00207085,-0.00342423,-0.0015877
 1,0.04565937,-0.00558046,0.04079357,0.00914370,-0.19911556,-0.00662948
 ,-0.02301514,-0.04871435,0.00200269,-0.00910392,0.00965738,-0.00055222
 ,-0.00027591,-0.00002535,-0.00030807,0.00042512,0.00003566,0.00033009,
 -0.00084266,0.00006581,0.00090284,0.00184858,-0.00014385,0.00070069,0.
 00038385,-0.00048491,-0.00039309,-0.00038829,0.00053978,-0.00068039,-0
 .00074767,0.00050806,0.00013151,0.00096411,-0.00048727,0.00032050,-0.0
 0015462,-0.00017049,0.00042667,0.00053316,-0.00095000,-0.00179117,-0.0
 0084942,-0.00024737,0.00211641,-0.00015885,-0.00569224,-0.01497624,-0.
 02519054,-0.01089524,0.01348098,-0.01249723,-0.02052756,-0.15411449,0.
 12230308,0.52733593,0.00093480,0.00034620,0.00040453,-0.00079936,0.000
 38182,0.00057471,-0.00149855,0.00083963,0.00058051,0.00140700,-0.00104
 460,0.00013267,-0.00138495,-0.00090541,-0.00011217,0.00123812,0.000736
 56,0.00061289,-0.00065264,-0.00029421,-0.00076770,-0.00013365,-0.00019
 331,-0.00003907,0.00047867,-0.00021188,-0.00081842,-0.00032156,0.00002
 307,0.00089448,0.00118222,-0.00089474,-0.00116846,0.00003917,0.0003822
 3,-0.00012970,0.00089067,-0.00046632,-0.00018301,-0.00130616,-0.000267
 88,-0.00021310,-0.00004327,0.00012197,-0.00006932,0.00007989,0.0008165
 3,-0.00022703,-0.00112562,-0.00177141,-0.00127933,0.00080913,0.0005221
 6,0.00278396,0.00026229,0.00035034,0.00114863,0.00022273,0.00026390,-0
 .00026957,0.00049719,-0.00007652,-0.00088464,-0.00175217,0.00133724,-0
 .00095986,0.00032153,-0.00109436,0.00115254,-0.00000774,-0.00009919,-0
 .00155322,-0.00048316,-0.00067624,0.00177216,-0.00014358,-0.00075019,0
 .00009829,0.00066183,0.00024989,0.00019843,0.00088025,0.00066349,0.001
 94760,-0.00045034,0.00078009,-0.00012082,-0.10650865,-0.02742188,-0.04
 037914,-0.01173696,-0.01569099,-0.02378044,0.00062168,-0.00384764,0.00
 069845,-0.01593904,0.02705031,-0.00718034,-0.16697094,0.09326087,-0.02
 574388,-0.21810041,0.00693261,0.00759410,-0.03299967,0.02707197,0.0249
 5303,0.00649030,0.01293140,0.01235674,-0.00432794,0.00150077,0.0037762
 5,-0.00277913,0.00175474,-0.00025854,-0.00280245,0.00209783,-0.0030032
 2,-0.00021481,0.00011825,0.00025808,0.00009980,-0.00063851,-0.00038221
 ,0.00096719,0.00054813,-0.00021203,-0.00328013,-0.00356024,-0.00336586
 ,0.00163026,-0.01068277,0.00613056,0.03145771,0.01637308,0.00441596,-0
 .02212194,0.01899834,-0.00422135,-0.01957814,-0.04583681,-0.00151626,0
 .01078159,0.00677168,-0.00486110,0.00031541,-0.00678191,-0.00135176,-0
 .00203198,-0.00223769,-0.00008352,-0.00093111,-0.00048703,-0.00051501,
 -0.00268176,-0.00263389,0.00462700,-0.00748107,0.00242492,-0.00129351,
 0.00822179,0.00431898,-0.00126174,-0.00052431,-0.00072982,0.00031235,0
 .00050223,0.00093209,-0.00118205,0.00107817,-0.00105728,-0.00145995,-0
 .00054659,0.00071004,0.00149169,0.55958816,0.00034645,0.00073550,-0.00
 003030,-0.00038161,-0.00088213,-0.00005926,0.00163972,0.00008505,-0.00
 108275,0.00159117,0.00172187,-0.00115338,-0.00170524,-0.00002769,-0.00
 040074,0.00060678,0.00046259,0.00054906,0.00065824,-0.00072062,-0.0004
 1370,-0.00059818,0.00034031,0.00091001,-0.00044256,0.00021559,0.000372
 90,0.00017723,-0.00006846,0.00013540,-0.00041259,-0.00200280,0.0009403
 9,-0.00117123,-0.00075331,0.00093500,-0.00022538,0.00080610,-0.0017091
 4,0.00005728,0.00056600,-0.00047943,0.00036215,-0.00058395,0.00044205,
 0.00014232,-0.00035015,0.00022167,-0.00054988,0.00005197,-0.00063060,-
 0.00082035,0.00143300,-0.00053235,0.00049696,-0.00144340,-0.00170539,0
 .00029843,-0.00004159,-0.00062235,0.00096663,0.00006474,-0.00083848,-0
 .00048192,0.00022610,0.00177578,0.00063775,-0.00056287,-0.00048551,0.0
 0051722,-0.00003950,0.00086923,0.00006349,0.00130762,-0.00010212,-0.00
 067227,-0.00052255,-0.00091571,0.00179387,0.00142808,-0.00024309,-0.00
 069394,0.00015968,-0.00038354,0.00021219,0.00053096,-0.00121300,-0.012
 06006,-0.15499735,-0.07341848,-0.03315979,0.01764729,-0.00988781,0.006
 81730,-0.02799193,-0.00379621,0.03635053,0.00140228,0.02826915,0.09073
 409,-0.27334033,-0.01096529,-0.00702885,-0.09503318,-0.01515567,0.0268
 0915,-0.00532376,-0.00989469,0.01944624,-0.03090684,-0.03045628,0.0068
 8413,0.00371025,0.00882439,-0.00509250,0.00202604,-0.00113193,0.002684
 47,0.00170756,-0.00055378,-0.00101994,0.00052965,-0.00688599,-0.000633
 88,-0.00765804,-0.00240932,0.00547477,0.00376738,0.00798510,-0.0012486
 0,0.01103590,-0.00738581,-0.00601280,0.00253991,-0.00524942,-0.0038639
 3,-0.04375842,0.00516111,0.00711927,-0.00705727,-0.00074454,-0.0255756
 4,0.00720163,0.00832333,-0.00265979,-0.00379021,-0.00422017,0.00106142
 ,-0.00038240,0.00016158,-0.00356265,-0.00465541,-0.00182035,-0.0012958
 1,0.00129056,0.00147613,0.00243995,0.00176320,-0.00220943,0.00266782,-
 0.00145706,0.00045226,-0.00406085,-0.00197904,0.00132702,0.00040413,-0
 .00000211,0.00147977,-0.00099451,-0.00019318,-0.00026293,-0.00135730,0
 .00025691,0.00039465,-0.00042069,0.00006852,0.00018879,-0.10125840,0.6
 0144328,0.00040437,-0.00003005,0.00043535,-0.00057435,-0.00006044,-0.0
 0006057,0.00040371,0.00010288,0.00008714,0.00106452,0.00046217,-0.0010
 4613,-0.00122688,0.00003920,0.00008844,0.00078230,0.00025581,-0.000175
 64,0.00013452,0.00001509,-0.00036916,0.00001618,0.00001767,0.00024253,
 -0.00004019,-0.00017757,-0.00024477,0.00013493,-0.00004375,0.00006638,
 -0.00023870,-0.00105446,-0.00034492,-0.00017250,-0.00003043,0.00078631
 ,0.00044774,0.00024834,-0.00082737,-0.00033736,0.00000489,0.00003546,0
 .00043304,-0.00012601,0.00030433,-0.00016229,-0.00019498,-0.00005178,-
 0.00071628,-0.00011330,-0.00025184,0.00015916,0.00078161,-0.00015988,0
 .00008529,-0.00074407,-0.00014350,0.00024376,-0.00001384,-0.00050490,0
 .00059653,-0.00059176,-0.00049083,-0.00013635,0.00073518,0.00036167,-0
 .00035119,-0.00009781,0.00017586,-0.00028128,-0.00029314,0.00012003,-0
 .00014123,0.00016461,0.00004159,-0.00030492,-0.00048465,-0.00003877,0.
 00058237,-0.00037159,-0.00103738,0.00131058,0.00017328,0.00001252,-0.0
 0014650,0.00104328,-0.00014306,-0.02729205,-0.07017213,-0.10623223,-0.
 02225183,0.00352642,-0.01838884,-0.00050436,-0.01125027,-0.00110070,0.
 00355024,0.01143005,0.00207229,-0.02242734,-0.01670528,-0.05145201,-0.
 00730950,-0.01515423,-0.05453782,0.01539169,-0.00456603,-0.00233451,0.
 01379903,-0.02171311,-0.01630572,0.00308001,-0.00097069,0.00738719,-0.
 00190716,0.00266213,-0.00022837,-0.00611652,-0.00388727,-0.00087511,0.
 00119624,0.00097344,-0.00129661,-0.00134798,-0.00253893,-0.00105407,0.
 00110746,0.00059184,0.00200240,-0.00359448,0.00356414,-0.00098330,-0.0
 0278531,-0.00036062,0.00260441,0.00794149,-0.00288077,-0.00019204,-0.0
 0148762,0.00403270,0.00071108,-0.00665245,0.00128034,-0.00013420,0.001
 14009,-0.00361238,-0.00020888,-0.00101225,-0.00137032,-0.00091880,0.00
 399409,-0.00016085,0.00471287,-0.00007287,0.00017133,0.00069400,-0.001
 46173,-0.00114607,-0.00006412,-0.00065121,0.00114258,0.00032525,0.0019
 3868,0.00088751,0.00049612,0.00005740,-0.00053958,0.00046273,0.0001104
 6,-0.00003940,-0.00037344,-0.00045524,-0.00081111,-0.00028581,0.000122
 25,-0.00025378,0.00055078,0.05193177,0.12825416,0.23808038\\-0.0000319
 7,0.00006563,0.00006652,0.00004248,0.00010842,-0.00005899,-0.00011067,
 -0.00007259,-0.00003093,-0.00011720,-0.00005005,-0.00007171,0.00015528
 ,0.00000509,0.00001080,0.00005297,-0.00012186,0.00002805,-0.00006236,0
 .00006880,-0.00005393,0.00002217,-0.00013471,-0.00003650,0.00007745,0.
 00004426,-0.00002481,-0.00011029,0.00004910,0.00009205,0.00009560,-0.0
 0007678,-0.00005751,-0.00010814,0.00002045,-0.00010800,0.00004803,-0.0
 0010933,0.00007791,-0.00007212,0.00000525,0.00006930,0.00004675,0.0001
 1765,0.,-0.00007830,0.00002064,-0.00008762,0.00000853,-0.00011272,-0.0
 0009149,-0.00001691,0.00007703,0.00007728,0.00003137,-0.00002139,0.000
 02741,-0.00003634,0.00006065,0.00004690,-0.00009563,0.00003294,0.00007
 312,0.00009229,-0.00009036,-0.00008236,0.00001742,0.00000065,-0.000087
 81,0.00006051,0.00007758,0.00000737,-0.00001071,-0.00007038,0.00003237
 ,-0.00006320,0.00002711,0.00009232,0.00003960,0.00011453,0.00005531,-0
 .00004194,-0.00005506,0.00001163,0.00002333,0.00000450,-0.00008390,0.0
 0006556,-0.00007110,0.00005347,-0.00003109,0.00001954,-0.00002935,0.00
 001630,-0.00007483,-0.00007595,-0.00000870,0.00011408,0.00009065,-0.00
 005093,0.00012127,-0.00002809,-0.00004367,-0.00011096,0.00005800,-0.00
 007456,-0.00004269,0.00002497,-0.00002524,0.00013539,0.00003637,0.0000
 3334,-0.00006087,-0.00004717,0.00009748,-0.00003414,-0.00007043,-0.000
 09165,0.00008943,0.00008510,-0.00006079,-0.00008066,-0.00000675,0.0000
 1088,0.00007329,-0.00003296,0.00006174,-0.00002917,-0.00008976,0.00007
 757,-0.00002196,0.00008716,-0.00004470,-0.00011609,-0.00000079,-0.0001
 5670,-0.00000598,-0.00001105,0.00011640,0.00005028,0.00007306,0.000111
 34,0.00007318,0.00003174,0.00010895,-0.00004830,-0.00009007,-0.0000253
 2,-0.00007961,-0.00011094,-0.00009544,0.00007483,0.00005797,-0.0000241
 2,-0.00000260,0.00008450,0.00011028,-0.00002126,0.00010812,-0.00004916
 ,0.00011190,-0.00008226,0.00007123,-0.00000754,-0.00006654,0.00004295,
 0.00005605,-0.00001453,-0.00003872,-0.00011349,-0.00005750,-0.00001887
 ,0.00000169,0.00008533,0.00002466,0.00007858,0.00011106,0.00003296,-0.
 00006332,-0.00006615\\\@


 Not by the face shall a man be known, but by the mask.
                               -- Karen Blixen
 Job cpu time:       3 days 11 hours 25 minutes 25.8 seconds.
 Elapsed time:       0 days  3 hours 29 minutes 14.2 seconds.
 File lengths (MBytes):  RWF=   9304 Int=      0 D2E=      0 Chk=     56 Scr=      1
 Normal termination of Gaussian 16 at Wed Jan 29 01:37:06 2020.
