 Entering Gaussian System, Link 0=g16
 Input=C14H30_opt.gjf
 Output=C14H30_opt.log
 Initial command:
 /home/qingchun/software/g16A_modified_by_qingchun/g16/l1.exe "/scratch/qingchun/gaussian/Gau-27142.inp" -scrdir="/scratch/qingchun/gaussian/"
 Entering Link 1 = /home/qingchun/software/g16A_modified_by_qingchun/g16/l1.exe PID=     27143.
  
 Copyright (c) 1988,1990,1992,1993,1995,1998,2003,2009,2016,
            Gaussian, Inc.  All Rights Reserved.
  
 This is part of the Gaussian(R) 16 program.  It is based on
 the Gaussian(R) 09 system (copyright 2009, Gaussian, Inc.),
 the Gaussian(R) 03 system (copyright 2003, Gaussian, Inc.),
 the Gaussian(R) 98 system (copyright 1998, Gaussian, Inc.),
 the Gaussian(R) 94 system (copyright 1995, Gaussian, Inc.),
 the Gaussian 92(TM) system (copyright 1992, Gaussian, Inc.),
 the Gaussian 90(TM) system (copyright 1990, Gaussian, Inc.),
 the Gaussian 88(TM) system (copyright 1988, Gaussian, Inc.),
 the Gaussian 86(TM) system (copyright 1986, Carnegie Mellon
 University), and the Gaussian 82(TM) system (copyright 1983,
 Carnegie Mellon University). Gaussian is a federally registered
 trademark of Gaussian, Inc.
  
 This software contains proprietary and confidential information,
 including trade secrets, belonging to Gaussian, Inc.
  
 This software is provided under written license and may be
 used, copied, transmitted, or stored only in accord with that
 written license.
  
 The following legend is applicable only to US Government
 contracts under FAR:
  
                    RESTRICTED RIGHTS LEGEND
  
 Use, reproduction and disclosure by the US Government is
 subject to restrictions as set forth in subparagraphs (a)
 and (c) of the Commercial Computer Software - Restricted
 Rights clause in FAR 52.227-19.
  
 Gaussian, Inc.
 340 Quinnipiac St., Bldg. 40, Wallingford CT 06492
  
  
 ---------------------------------------------------------------
 Warning -- This program may not be used in any manner that
 competes with the business of Gaussian, Inc. or will provide
 assistance to any competitor of Gaussian, Inc.  The licensee
 of this program is prohibited from giving any competitor of
 Gaussian, Inc. access to this program.  By using this program,
 the user acknowledges that Gaussian, Inc. is engaged in the
 business of creating and licensing software in the field of
 computational chemistry and represents and warrants to the
 licensee that it is not a competitor of Gaussian, Inc. and that
 it will not use this program in any manner prohibited above.
 ---------------------------------------------------------------
  

 Cite this work as:
 Gaussian 16, Revision A.03,
 M. J. Frisch, G. W. Trucks, H. B. Schlegel, G. E. Scuseria, 
 M. A. Robb, J. R. Cheeseman, G. Scalmani, V. Barone, 
 G. A. Petersson, H. Nakatsuji, X. Li, M. Caricato, A. V. Marenich, 
 J. Bloino, B. G. Janesko, R. Gomperts, B. Mennucci, H. P. Hratchian, 
 J. V. Ortiz, A. F. Izmaylov, J. L. Sonnenberg, D. Williams-Young, 
 F. Ding, F. Lipparini, F. Egidi, J. Goings, B. Peng, A. Petrone, 
 T. Henderson, D. Ranasinghe, V. G. Zakrzewski, J. Gao, N. Rega, 
 G. Zheng, W. Liang, M. Hada, M. Ehara, K. Toyota, R. Fukuda, 
 J. Hasegawa, M. Ishida, T. Nakajima, Y. Honda, O. Kitao, H. Nakai, 
 T. Vreven, K. Throssell, J. A. Montgomery, Jr., J. E. Peralta, 
 F. Ogliaro, M. J. Bearpark, J. J. Heyd, E. N. Brothers, K. N. Kudin, 
 V. N. Staroverov, T. A. Keith, R. Kobayashi, J. Normand, 
 K. Raghavachari, A. P. Rendell, J. C. Burant, S. S. Iyengar, 
 J. Tomasi, M. Cossi, J. M. Millam, M. Klene, C. Adamo, R. Cammi, 
 J. W. Ochterski, R. L. Martin, K. Morokuma, O. Farkas, 
 J. B. Foresman, and D. J. Fox, Gaussian, Inc., Wallingford CT, 2016.
 
 ******************************************
 Gaussian 16:  ES64L-G16RevA.03 25-Dec-2016
                15-Feb-2020 
 ******************************************
 %nprocshared=8
 Will use up to    8 processors via shared memory.
 %mem=30GB
 %chk=C14H30_opt.chk
 ------------------------
 # opt freq b3lyp/cc-pvdz
 ------------------------
 1/18=20,19=15,26=3,38=1/1,3;
 2/9=110,12=2,17=6,18=5,40=1/2;
 3/5=16,11=2,25=1,30=1,71=1,74=-5/1,2,3;
 4//1;
 5/5=2,38=5/2;
 6/7=2,8=2,9=2,10=2,28=1/1;
 7//1,2,3,16;
 1/18=20,19=15,26=3/3(2);
 2/9=110/2;
 99//99;
 2/9=110/2;
 3/5=16,11=2,25=1,30=1,71=1,74=-5/1,2,3;
 4/5=5,16=3,69=1/1;
 5/5=2,38=5/2;
 7//1,2,3,16;
 1/18=20,19=15,26=3/3(-5);
 2/9=110/2;
 6/7=2,8=2,9=2,10=2,19=2,28=1/1;
 99/9=1/99;
 -----
 6-31g
 -----
 Symbolic Z-matrix:
 Charge =  0 Multiplicity = 1
 C                     0.        0.        0. 
 H                     0.        0.        1.10363 
 H                     1.05357   0.       -0.32861 
 H                    -0.45267  -0.9481   -0.33299 
 C                    -0.75471   1.21017  -0.55517 
 H                    -0.76786   1.16216  -1.65998 
 H                    -1.81332   1.16216  -0.23877 
 C                    -0.15849   2.55194  -0.11658 
 H                     0.90114   2.60023  -0.43276 
 H                    -0.14479   2.6002    0.98913 
 C                    -0.90697   3.77008  -0.66714 
 H                    -1.96634   3.72097  -0.35094 
 H                    -0.92057   3.721    -1.7726 
 C                    -0.3106    5.11162  -0.22841 
 H                     0.74872   5.161    -0.54462 
 H                    -0.29704   5.16097   0.87701 
 C                    -1.05958   6.32956  -0.77935 
 H                    -2.1189    6.28026  -0.46317 
 H                    -1.07316   6.28028  -1.88477 
 C                    -0.46325   7.67113  -0.34066 
 H                     0.59607   7.72046  -0.65684 
 H                    -0.44967   7.72044   0.76475 
 C                    -1.21227   8.88903  -0.89163 
 H                    -2.2716    8.83967  -0.57545 
 H                    -1.22585   8.83969  -1.99705 
 C                    -0.616     10.23063  -0.45298 
 H                     0.44332   10.27991  -0.76918 
 H                    -0.60244   10.27988   0.65244 
 C                    -1.36507   11.44848  -1.00398 
 H                    -2.42441   11.39893  -0.68778 
 H                    -1.37863   11.39895  -2.10943 
 C                    -0.76931   12.7902  -0.56572 
 H                     0.29019   12.8406  -0.88198 
 H                    -0.75575   12.84057   0.5399 
 C                    -1.51825   14.00831  -1.11662 
 H                    -2.57671   13.95779  -0.8001 
 H                    -1.53125   13.95782  -2.22132 
 C                    -0.91537   15.34329  -0.67312 
 H                     0.13245   15.43962  -1.00595 
 H                    -0.92111   15.4396   0.42628 
 C                    -1.69818   16.53795  -1.24894 
 H                    -2.71237   16.49634  -0.91042 
 H                    -1.24909   17.45123  -0.91857 
 H                    -1.67699   16.49636  -2.31792 
 

 GradGradGradGradGradGradGradGradGradGradGradGradGradGradGradGradGradGrad
 Berny optimization.
 Initialization pass.
                           ----------------------------
                           !    Initial Parameters    !
                           ! (Angstroms and Degrees)  !
 --------------------------                            --------------------------
 ! Name  Definition              Value          Derivative Info.                !
 --------------------------------------------------------------------------------
 ! R1    R(1,2)                  1.1036         estimate D2E/DX2                !
 ! R2    R(1,3)                  1.1036         estimate D2E/DX2                !
 ! R3    R(1,4)                  1.1021         estimate D2E/DX2                !
 ! R4    R(1,5)                  1.5305         estimate D2E/DX2                !
 ! R5    R(5,6)                  1.1059         estimate D2E/DX2                !
 ! R6    R(5,7)                  1.1059         estimate D2E/DX2                !
 ! R7    R(5,8)                  1.5324         estimate D2E/DX2                !
 ! R8    R(8,9)                  1.1068         estimate D2E/DX2                !
 ! R9    R(8,10)                 1.1068         estimate D2E/DX2                !
 ! R10   R(8,11)                 1.5321         estimate D2E/DX2                !
 ! R11   R(11,12)                1.1066         estimate D2E/DX2                !
 ! R12   R(11,13)                1.1066         estimate D2E/DX2                !
 ! R13   R(11,14)                1.5323         estimate D2E/DX2                !
 ! R14   R(14,15)                1.1066         estimate D2E/DX2                !
 ! R15   R(14,16)                1.1066         estimate D2E/DX2                !
 ! R16   R(14,17)                1.5323         estimate D2E/DX2                !
 ! R17   R(17,18)                1.1066         estimate D2E/DX2                !
 ! R18   R(17,19)                1.1066         estimate D2E/DX2                !
 ! R19   R(17,20)                1.5323         estimate D2E/DX2                !
 ! R20   R(20,21)                1.1066         estimate D2E/DX2                !
 ! R21   R(20,22)                1.1066         estimate D2E/DX2                !
 ! R22   R(20,23)                1.5323         estimate D2E/DX2                !
 ! R23   R(23,24)                1.1066         estimate D2E/DX2                !
 ! R24   R(23,25)                1.1066         estimate D2E/DX2                !
 ! R25   R(23,26)                1.5323         estimate D2E/DX2                !
 ! R26   R(26,27)                1.1066         estimate D2E/DX2                !
 ! R27   R(26,28)                1.1066         estimate D2E/DX2                !
 ! R28   R(26,29)                1.5323         estimate D2E/DX2                !
 ! R29   R(29,30)                1.1066         estimate D2E/DX2                !
 ! R30   R(29,31)                1.1066         estimate D2E/DX2                !
 ! R31   R(29,32)                1.5321         estimate D2E/DX2                !
 ! R32   R(32,33)                1.1068         estimate D2E/DX2                !
 ! R33   R(32,34)                1.1068         estimate D2E/DX2                !
 ! R34   R(32,35)                1.5324         estimate D2E/DX2                !
 ! R35   R(35,36)                1.1059         estimate D2E/DX2                !
 ! R36   R(35,37)                1.1059         estimate D2E/DX2                !
 ! R37   R(35,38)                1.5305         estimate D2E/DX2                !
 ! R38   R(38,39)                1.1036         estimate D2E/DX2                !
 ! R39   R(38,40)                1.1036         estimate D2E/DX2                !
 ! R40   R(38,41)                1.54           estimate D2E/DX2                !
 ! R41   R(41,42)                1.07           estimate D2E/DX2                !
 ! R42   R(41,43)                1.07           estimate D2E/DX2                !
 ! R43   R(41,44)                1.07           estimate D2E/DX2                !
 ! A1    A(2,1,3)              107.3228         estimate D2E/DX2                !
 ! A2    A(2,1,4)              107.5855         estimate D2E/DX2                !
 ! A3    A(2,1,5)              111.2692         estimate D2E/DX2                !
 ! A4    A(3,1,4)              107.5858         estimate D2E/DX2                !
 ! A5    A(3,1,5)              111.2689         estimate D2E/DX2                !
 ! A6    A(4,1,5)              111.5974         estimate D2E/DX2                !
 ! A7    A(1,5,6)              109.5069         estimate D2E/DX2                !
 ! A8    A(1,5,7)              109.5064         estimate D2E/DX2                !
 ! A9    A(1,5,8)              113.3705         estimate D2E/DX2                !
 ! A10   A(6,5,7)              105.8158         estimate D2E/DX2                !
 ! A11   A(6,5,8)              109.1818         estimate D2E/DX2                !
 ! A12   A(7,5,8)              109.1814         estimate D2E/DX2                !
 ! A13   A(5,8,9)              109.2033         estimate D2E/DX2                !
 ! A14   A(5,8,10)             109.2035         estimate D2E/DX2                !
 ! A15   A(5,8,11)             113.7821         estimate D2E/DX2                !
 ! A16   A(9,8,10)             105.7605         estimate D2E/DX2                !
 ! A17   A(9,8,11)             109.2907         estimate D2E/DX2                !
 ! A18   A(10,8,11)            109.2906         estimate D2E/DX2                !
 ! A19   A(8,11,12)            109.2516         estimate D2E/DX2                !
 ! A20   A(8,11,13)            109.2515         estimate D2E/DX2                !
 ! A21   A(8,11,14)            113.7715         estimate D2E/DX2                !
 ! A22   A(12,11,13)           105.7648         estimate D2E/DX2                !
 ! A23   A(12,11,14)           109.2463         estimate D2E/DX2                !
 ! A24   A(13,11,14)           109.2463         estimate D2E/DX2                !
 ! A25   A(11,14,15)           109.2584         estimate D2E/DX2                !
 ! A26   A(11,14,16)           109.2584         estimate D2E/DX2                !
 ! A27   A(11,14,17)           113.7482         estimate D2E/DX2                !
 ! A28   A(15,14,16)           105.7665         estimate D2E/DX2                !
 ! A29   A(15,14,17)           109.2511         estimate D2E/DX2                !
 ! A30   A(16,14,17)           109.2511         estimate D2E/DX2                !
 ! A31   A(14,17,18)           109.2553         estimate D2E/DX2                !
 ! A32   A(14,17,19)           109.2553         estimate D2E/DX2                !
 ! A33   A(14,17,20)           113.751          estimate D2E/DX2                !
 ! A34   A(18,17,19)           105.7642         estimate D2E/DX2                !
 ! A35   A(18,17,20)           109.2538         estimate D2E/DX2                !
 ! A36   A(19,17,20)           109.2536         estimate D2E/DX2                !
 ! A37   A(17,20,21)           109.2551         estimate D2E/DX2                !
 ! A38   A(17,20,22)           109.2551         estimate D2E/DX2                !
 ! A39   A(17,20,23)           113.7485         estimate D2E/DX2                !
 ! A40   A(21,20,22)           105.7645         estimate D2E/DX2                !
 ! A41   A(21,20,23)           109.2552         estimate D2E/DX2                !
 ! A42   A(22,20,23)           109.2551         estimate D2E/DX2                !
 ! A43   A(20,23,24)           109.2537         estimate D2E/DX2                !
 ! A44   A(20,23,25)           109.2537         estimate D2E/DX2                !
 ! A45   A(20,23,26)           113.751          estimate D2E/DX2                !
 ! A46   A(24,23,25)           105.7642         estimate D2E/DX2                !
 ! A47   A(24,23,26)           109.2553         estimate D2E/DX2                !
 ! A48   A(25,23,26)           109.2553         estimate D2E/DX2                !
 ! A49   A(23,26,27)           109.2511         estimate D2E/DX2                !
 ! A50   A(23,26,28)           109.251          estimate D2E/DX2                !
 ! A51   A(23,26,29)           113.7482         estimate D2E/DX2                !
 ! A52   A(27,26,28)           105.7665         estimate D2E/DX2                !
 ! A53   A(27,26,29)           109.2584         estimate D2E/DX2                !
 ! A54   A(28,26,29)           109.2584         estimate D2E/DX2                !
 ! A55   A(26,29,30)           109.2463         estimate D2E/DX2                !
 ! A56   A(26,29,31)           109.2463         estimate D2E/DX2                !
 ! A57   A(26,29,32)           113.7715         estimate D2E/DX2                !
 ! A58   A(30,29,31)           105.7648         estimate D2E/DX2                !
 ! A59   A(30,29,32)           109.2516         estimate D2E/DX2                !
 ! A60   A(31,29,32)           109.2515         estimate D2E/DX2                !
 ! A61   A(29,32,33)           109.2906         estimate D2E/DX2                !
 ! A62   A(29,32,34)           109.2907         estimate D2E/DX2                !
 ! A63   A(29,32,35)           113.7821         estimate D2E/DX2                !
 ! A64   A(33,32,34)           105.7605         estimate D2E/DX2                !
 ! A65   A(33,32,35)           109.2034         estimate D2E/DX2                !
 ! A66   A(34,32,35)           109.2034         estimate D2E/DX2                !
 ! A67   A(32,35,36)           109.1816         estimate D2E/DX2                !
 ! A68   A(32,35,37)           109.1816         estimate D2E/DX2                !
 ! A69   A(32,35,38)           113.3705         estimate D2E/DX2                !
 ! A70   A(36,35,37)           105.8158         estimate D2E/DX2                !
 ! A71   A(36,35,38)           109.5066         estimate D2E/DX2                !
 ! A72   A(37,35,38)           109.5067         estimate D2E/DX2                !
 ! A73   A(35,38,39)           111.269          estimate D2E/DX2                !
 ! A74   A(35,38,40)           111.2691         estimate D2E/DX2                !
 ! A75   A(35,38,41)           111.5974         estimate D2E/DX2                !
 ! A76   A(39,38,40)           107.3227         estimate D2E/DX2                !
 ! A77   A(39,38,41)           107.5856         estimate D2E/DX2                !
 ! A78   A(40,38,41)           107.5857         estimate D2E/DX2                !
 ! A79   A(38,41,42)           109.4712         estimate D2E/DX2                !
 ! A80   A(38,41,43)           109.4712         estimate D2E/DX2                !
 ! A81   A(38,41,44)           109.4712         estimate D2E/DX2                !
 ! A82   A(42,41,43)           109.4713         estimate D2E/DX2                !
 ! A83   A(42,41,44)           109.4712         estimate D2E/DX2                !
 ! A84   A(43,41,44)           109.4712         estimate D2E/DX2                !
 ! D1    D(2,1,5,6)           -177.99           estimate D2E/DX2                !
 ! D2    D(2,1,5,7)            -62.3802         estimate D2E/DX2                !
 ! D3    D(2,1,5,8)             59.8145         estimate D2E/DX2                !
 ! D4    D(3,1,5,6)             62.3801         estimate D2E/DX2                !
 ! D5    D(3,1,5,7)            177.9899         estimate D2E/DX2                !
 ! D6    D(3,1,5,8)            -59.8154         estimate D2E/DX2                !
 ! D7    D(4,1,5,6)            -57.805          estimate D2E/DX2                !
 ! D8    D(4,1,5,7)             57.8048         estimate D2E/DX2                !
 ! D9    D(4,1,5,8)            179.9995         estimate D2E/DX2                !
 ! D10   D(1,5,8,9)             57.6048         estimate D2E/DX2                !
 ! D11   D(1,5,8,10)           -57.6018         estimate D2E/DX2                !
 ! D12   D(1,5,8,11)          -179.9986         estimate D2E/DX2                !
 ! D13   D(6,5,8,9)            -64.7714         estimate D2E/DX2                !
 ! D14   D(6,5,8,10)          -179.978          estimate D2E/DX2                !
 ! D15   D(6,5,8,11)            57.6253         estimate D2E/DX2                !
 ! D16   D(7,5,8,9)            179.98           estimate D2E/DX2                !
 ! D17   D(7,5,8,10)            64.7735         estimate D2E/DX2                !
 ! D18   D(7,5,8,11)           -57.6233         estimate D2E/DX2                !
 ! D19   D(5,8,11,12)           57.632          estimate D2E/DX2                !
 ! D20   D(5,8,11,13)          -57.6327         estimate D2E/DX2                !
 ! D21   D(5,8,11,14)          179.9997         estimate D2E/DX2                !
 ! D22   D(9,8,11,12)          179.9805         estimate D2E/DX2                !
 ! D23   D(9,8,11,13)           64.7158         estimate D2E/DX2                !
 ! D24   D(9,8,11,14)          -57.6518         estimate D2E/DX2                !
 ! D25   D(10,8,11,12)         -64.7168         estimate D2E/DX2                !
 ! D26   D(10,8,11,13)        -179.9815         estimate D2E/DX2                !
 ! D27   D(10,8,11,14)          57.6509         estimate D2E/DX2                !
 ! D28   D(8,11,14,15)          57.6366         estimate D2E/DX2                !
 ! D29   D(8,11,14,16)         -57.6377         estimate D2E/DX2                !
 ! D30   D(8,11,14,17)         179.9995         estimate D2E/DX2                !
 ! D31   D(12,11,14,15)       -179.9928         estimate D2E/DX2                !
 ! D32   D(12,11,14,16)         64.7329         estimate D2E/DX2                !
 ! D33   D(12,11,14,17)        -57.6299         estimate D2E/DX2                !
 ! D34   D(13,11,14,15)        -64.7339         estimate D2E/DX2                !
 ! D35   D(13,11,14,16)        179.9918         estimate D2E/DX2                !
 ! D36   D(13,11,14,17)         57.629          estimate D2E/DX2                !
 ! D37   D(11,14,17,18)         57.6339         estimate D2E/DX2                !
 ! D38   D(11,14,17,19)        -57.6342         estimate D2E/DX2                !
 ! D39   D(11,14,17,20)        180.0            estimate D2E/DX2                !
 ! D40   D(15,14,17,18)       -179.9991         estimate D2E/DX2                !
 ! D41   D(15,14,17,19)         64.7327         estimate D2E/DX2                !
 ! D42   D(15,14,17,20)        -57.6331         estimate D2E/DX2                !
 ! D43   D(16,14,17,18)        -64.733          estimate D2E/DX2                !
 ! D44   D(16,14,17,19)        179.9989         estimate D2E/DX2                !
 ! D45   D(16,14,17,20)         57.6331         estimate D2E/DX2                !
 ! D46   D(14,17,20,21)         57.634          estimate D2E/DX2                !
 ! D47   D(14,17,20,22)        -57.6342         estimate D2E/DX2                !
 ! D48   D(14,17,20,23)        180.0            estimate D2E/DX2                !
 ! D49   D(18,17,20,21)       -179.9991         estimate D2E/DX2                !
 ! D50   D(18,17,20,22)         64.7327         estimate D2E/DX2                !
 ! D51   D(18,17,20,23)        -57.6331         estimate D2E/DX2                !
 ! D52   D(19,17,20,21)        -64.7327         estimate D2E/DX2                !
 ! D53   D(19,17,20,22)        179.9991         estimate D2E/DX2                !
 ! D54   D(19,17,20,23)         57.6333         estimate D2E/DX2                !
 ! D55   D(17,20,23,24)         57.6332         estimate D2E/DX2                !
 ! D56   D(17,20,23,25)        -57.6333         estimate D2E/DX2                !
 ! D57   D(17,20,23,26)        180.0            estimate D2E/DX2                !
 ! D58   D(21,20,23,24)        179.9991         estimate D2E/DX2                !
 ! D59   D(21,20,23,25)         64.7327         estimate D2E/DX2                !
 ! D60   D(21,20,23,26)        -57.6341         estimate D2E/DX2                !
 ! D61   D(22,20,23,24)        -64.7327         estimate D2E/DX2                !
 ! D62   D(22,20,23,25)       -179.9991         estimate D2E/DX2                !
 ! D63   D(22,20,23,26)         57.6342         estimate D2E/DX2                !
 ! D64   D(20,23,26,27)         57.6331         estimate D2E/DX2                !
 ! D65   D(20,23,26,28)        -57.6331         estimate D2E/DX2                !
 ! D66   D(20,23,26,29)        180.0            estimate D2E/DX2                !
 ! D67   D(24,23,26,27)        179.999          estimate D2E/DX2                !
 ! D68   D(24,23,26,28)         64.7329         estimate D2E/DX2                !
 ! D69   D(24,23,26,29)        -57.634          estimate D2E/DX2                !
 ! D70   D(25,23,26,27)        -64.7328         estimate D2E/DX2                !
 ! D71   D(25,23,26,28)       -179.999          estimate D2E/DX2                !
 ! D72   D(25,23,26,29)         57.6341         estimate D2E/DX2                !
 ! D73   D(23,26,29,30)         57.6294         estimate D2E/DX2                !
 ! D74   D(23,26,29,31)        -57.6294         estimate D2E/DX2                !
 ! D75   D(23,26,29,32)        180.0            estimate D2E/DX2                !
 ! D76   D(27,26,29,30)        179.9923         estimate D2E/DX2                !
 ! D77   D(27,26,29,31)         64.7334         estimate D2E/DX2                !
 ! D78   D(27,26,29,32)        -57.6371         estimate D2E/DX2                !
 ! D79   D(28,26,29,30)        -64.7334         estimate D2E/DX2                !
 ! D80   D(28,26,29,31)       -179.9923         estimate D2E/DX2                !
 ! D81   D(28,26,29,32)         57.6372         estimate D2E/DX2                !
 ! D82   D(26,29,32,33)         57.6514         estimate D2E/DX2                !
 ! D83   D(26,29,32,34)        -57.6513         estimate D2E/DX2                !
 ! D84   D(26,29,32,35)        180.0            estimate D2E/DX2                !
 ! D85   D(30,29,32,33)       -179.981          estimate D2E/DX2                !
 ! D86   D(30,29,32,34)         64.7163         estimate D2E/DX2                !
 ! D87   D(30,29,32,35)        -57.6324         estimate D2E/DX2                !
 ! D88   D(31,29,32,33)        -64.7163         estimate D2E/DX2                !
 ! D89   D(31,29,32,34)        179.9811         estimate D2E/DX2                !
 ! D90   D(31,29,32,35)         57.6324         estimate D2E/DX2                !
 ! D91   D(29,32,35,36)         57.6243         estimate D2E/DX2                !
 ! D92   D(29,32,35,37)        -57.6243         estimate D2E/DX2                !
 ! D93   D(29,32,35,38)        180.0            estimate D2E/DX2                !
 ! D94   D(33,32,35,36)       -179.979          estimate D2E/DX2                !
 ! D95   D(33,32,35,37)         64.7724         estimate D2E/DX2                !
 ! D96   D(33,32,35,38)        -57.6033         estimate D2E/DX2                !
 ! D97   D(34,32,35,36)        -64.7724         estimate D2E/DX2                !
 ! D98   D(34,32,35,37)        179.979          estimate D2E/DX2                !
 ! D99   D(34,32,35,38)         57.6032         estimate D2E/DX2                !
 ! D100  D(32,35,38,39)         59.815          estimate D2E/DX2                !
 ! D101  D(32,35,38,40)        -59.8149         estimate D2E/DX2                !
 ! D102  D(32,35,38,41)        180.0            estimate D2E/DX2                !
 ! D103  D(36,35,38,39)       -177.99           estimate D2E/DX2                !
 ! D104  D(36,35,38,40)         62.3802         estimate D2E/DX2                !
 ! D105  D(36,35,38,41)        -57.805          estimate D2E/DX2                !
 ! D106  D(37,35,38,39)        -62.3802         estimate D2E/DX2                !
 ! D107  D(37,35,38,40)        177.99           estimate D2E/DX2                !
 ! D108  D(37,35,38,41)         57.8048         estimate D2E/DX2                !
 ! D109  D(35,38,41,42)         60.0            estimate D2E/DX2                !
 ! D110  D(35,38,41,43)       -179.9999         estimate D2E/DX2                !
 ! D111  D(35,38,41,44)        -59.9999         estimate D2E/DX2                !
 ! D112  D(39,38,41,42)       -177.6741         estimate D2E/DX2                !
 ! D113  D(39,38,41,43)        -57.6741         estimate D2E/DX2                !
 ! D114  D(39,38,41,44)         62.3259         estimate D2E/DX2                !
 ! D115  D(40,38,41,42)        -62.3259         estimate D2E/DX2                !
 ! D116  D(40,38,41,43)         57.6741         estimate D2E/DX2                !
 ! D117  D(40,38,41,44)        177.6741         estimate D2E/DX2                !
 --------------------------------------------------------------------------------
 Trust Radius=3.00D-01 FncErr=1.00D-07 GrdErr=1.00D-06 EigMax=2.50D+02 EigMin=1.00D-04
 Number of steps in this run=    254 maximum allowed number of steps=    264.
 GradGradGradGradGradGradGradGradGradGradGradGradGradGradGradGradGradGrad

                          Input orientation:                          
 ---------------------------------------------------------------------
 Center     Atomic      Atomic             Coordinates (Angstroms)
 Number     Number       Type             X           Y           Z
 ---------------------------------------------------------------------
      1          6           0        0.000000    0.000000    0.000000
      2          1           0        0.000000    0.000000    1.103626
      3          1           0        1.053568    0.000000   -0.328609
      4          1           0       -0.452670   -0.948105   -0.332986
      5          6           0       -0.754705    1.210172   -0.555175
      6          1           0       -0.767856    1.162163   -1.659983
      7          1           0       -1.813316    1.162159   -0.238767
      8          6           0       -0.158488    2.551937   -0.116580
      9          1           0        0.901135    2.600227   -0.432763
     10          1           0       -0.144789    2.600205    0.989128
     11          6           0       -0.906974    3.770082   -0.667135
     12          1           0       -1.966344    3.720970   -0.350942
     13          1           0       -0.920572    3.721002   -1.772603
     14          6           0       -0.310599    5.111622   -0.228414
     15          1           0        0.748717    5.160998   -0.544616
     16          1           0       -0.297041    5.160974    0.877006
     17          6           0       -1.059576    6.329555   -0.779348
     18          1           0       -2.118904    6.280257   -0.463171
     19          1           0       -1.073158    6.280283   -1.884771
     20          6           0       -0.463253    7.671130   -0.340664
     21          1           0        0.596068    7.720458   -0.656844
     22          1           0       -0.449674    7.720435    0.764755
     23          6           0       -1.212274    8.889027   -0.891630
     24          1           0       -2.271598    8.839667   -0.575450
     25          1           0       -1.225854    8.839691   -1.997051
     26          6           0       -0.615999   10.230631   -0.452982
     27          1           0        0.443323   10.279909   -0.769180
     28          1           0       -0.602436   10.279885    0.652443
     29          6           0       -1.365067   11.448483   -1.003983
     30          1           0       -2.424413   11.398930   -0.687778
     31          1           0       -1.378631   11.398954   -2.109432
     32          6           0       -0.769311   12.790204   -0.565717
     33          1           0        0.290192   12.840596   -0.881978
     34          1           0       -0.755752   12.840573    0.539898
     35          6           0       -1.518245   14.008309   -1.116619
     36          1           0       -2.576708   13.957793   -0.800100
     37          1           0       -1.531249   13.957817   -2.221317
     38          6           0       -0.915370   15.343285   -0.673116
     39          1           0        0.132449   15.439625   -1.005954
     40          1           0       -0.921114   15.439600    0.426283
     41          6           0       -1.698182   16.537954   -1.248939
     42          1           0       -2.712366   16.496337   -0.910415
     43          1           0       -1.249087   17.451227   -0.918567
     44          1           0       -1.676994   16.496361   -2.317921
 ---------------------------------------------------------------------
                    Distance matrix (angstroms):
                    1          2          3          4          5
     1  C    0.000000
     2  H    1.103626   0.000000
     3  H    1.103625   1.778005   0.000000
     4  H    1.102131   1.779794   1.779796   0.000000
     5  C    1.530463   2.187628   2.187624   2.190605   0.000000
     6  H    2.166972   3.094796   2.537866   2.512666   1.105929
     7  H    2.166965   2.537863   3.094787   2.512657   1.105928
     8  C    2.559510   2.833090   2.833093   3.519043   1.532375
     9  H    2.785769   3.151780   2.606773   3.799132   2.165421
    10  H    2.785750   2.606748   3.151754   3.799115   2.165424
    11  C    3.934614   4.262829   4.262844   4.751771   2.566877
    12  H    4.223184   4.452852   4.792284   4.908339   2.795333
    13  H    4.223202   4.792286   4.452887   4.908359   2.795337
    14  C    5.126141   5.291453   5.291471   6.062293   3.940217
    15  H    5.243385   5.469294   5.174504   6.229708   4.227223
    16  H    5.243380   5.174480   5.469306   6.229699   4.227226
    17  C    6.464778   6.688166   6.688184   7.316550   5.133350
    18  H    6.644239   6.810744   7.037351   7.419063   5.251215
    19  H    6.644244   7.037339   6.810768   7.419072   5.251215
    20  C    7.692652   7.819643   7.819663   8.619245   6.471085
    21  H    7.771243   7.941035   7.740964   8.737776   6.649718
    22  H    7.771240   7.740940   7.941051   8.737770   6.649720
    23  C    9.015510   9.190509   9.190529   9.882218   7.699830
    24  H    9.144999   9.280041   9.447611   9.958301   7.778853
    25  H    9.145002   9.447595   9.280065   9.958307   7.778853
    26  C   10.259164  10.366691  10.366712  11.180572   9.022104
    27  H   10.318173  10.458512  10.307426  11.272150   9.151022
    28  H   10.318170  10.307401  10.458529  11.272145   9.151022
    29  C   11.573208  11.720631  11.720652  12.448216  10.266303
    30  H   11.674177  11.790781  11.923127  12.508513  10.325516
    31  H   11.674180  11.923109  11.790805  12.508518  10.325516
    32  C   12.825802  12.921605  12.921627  13.743928  11.580046
    33  H   12.874122  12.996451  12.875165  13.819606  11.681840
    34  H   12.874120  12.875141  12.996471  13.819602  11.681841
    35  C   14.134519  14.264195  14.264217  15.014787  12.833180
    36  H   14.216173  14.320740  14.429871  15.063715  12.879500
    37  H   14.216175  14.429852  14.320764  15.063719  12.879500
    38  C   15.385298  15.472916  15.472938  16.301508  14.134519
    39  H   15.472928  15.583642  15.481901  16.411975  14.264206
    40  H   15.472926  15.481877  15.583661  16.411971  14.264206
    41  C   16.671761  16.790543  16.790565  17.554274  15.372455
    42  H   16.742608  16.838718  16.930738  17.599665  15.415105
    43  H   17.519969  17.612349  17.612371  18.425868  16.252641
    44  H   16.742610  16.930718  16.838742  17.599668  15.415105
                    6          7          8          9         10
     6  H    0.000000
     7  H    1.764325   0.000000
     8  C    2.164462   2.164455   0.000000
     9  H    2.521831   3.077973   1.106845   0.000000
    10  H    3.077981   2.521842   1.106845   1.765143   0.000000
    11  C    2.793983   2.793961   1.532064   2.166275   2.166275
    12  H    3.114074   2.565836   2.165619   3.079804   2.523879
    13  H    2.565865   3.114052   2.165618   2.523871   3.079803
    14  C    4.225719   4.225698   2.566638   2.795918   2.795911
    15  H    4.419810   4.759020   2.795253   2.567740   3.115828
    16  H    4.759041   4.419792   2.795261   3.115854   2.567741
    17  C    5.250006   5.249984   3.939749   4.227575   4.227576
    18  H    5.427023   5.132121   4.226550   4.760691   4.421435
    19  H    5.132143   5.427002   4.226546   4.421422   4.760687
    20  C    6.648311   6.648290   5.133151   5.252056   5.252052
    21  H    6.773317   6.999372   5.251177   5.134203   5.429097
    22  H    6.999395   6.773297   5.251182   5.429112   5.134205
    23  C    7.777680   7.777658   6.470694   6.650267   6.650268
    24  H    7.898197   7.698539   6.649161   7.001228   6.775109
    25  H    7.698559   7.898175   6.649158   6.775100   7.001226
    26  C    9.149701   9.149680   7.699664   7.779792   7.779790
    27  H    9.240875   9.407822   7.778793   7.700667   7.900341
    28  H    9.407844   9.240855   7.778796   7.900350   7.700668
    29  C   10.324504  10.324482   9.021743   9.151699   9.151699
    30  H   10.415410  10.264820   9.150408   9.409647   9.242633
    31  H   10.264840  10.415388   9.150406   9.242627   9.409646
    32  C   11.679417  11.679396  10.266302  10.326844  10.326842
    33  H   11.752045  11.883786  10.326842  10.268408  10.419015
    34  H   11.883808  11.752026  10.326845  10.419022  10.268409
    35  C   12.879510  12.879489  11.580046  11.681840  11.681840
    36  H   12.951428  12.830671  11.679407  11.883797  11.752037
    37  H   12.830691  12.951407  11.679405  11.752032  11.883796
    38  C   14.216185  14.216164  12.825802  12.874121  12.874120
    39  H   14.320762  14.429851  12.921615  12.875152  12.996458
    40  H   14.429872  14.320742  12.921617  12.996463  12.875153
    41  C   15.409394  15.409373  14.116005  14.201508  14.201509
    42  H   15.475137  15.375188  14.198548  14.366190  14.258444
    43  H   16.313029  16.313008  14.960664  15.013716  15.013716
    44  H   15.375208  15.475115  14.198546  14.258439  14.366189
                   11         12         13         14         15
    11  C    0.000000
    12  H    1.106641   0.000000
    13  H    1.106640   1.764868   0.000000
    14  C    1.532276   2.165737   2.165736   0.000000
    15  H    2.165865   3.079407   2.523504   1.106604   0.000000
    16  H    2.165865   2.523498   3.079406   1.106604   1.764828
    17  C    2.566473   2.794723   2.794714   1.532272   2.165768
    18  H    2.794880   2.566285   3.114546   2.165822   3.079387
    19  H    2.794882   3.114562   2.566278   2.165822   2.523499
    20  C    3.939753   4.226482   4.226477   2.566513   2.794858
    21  H    4.226668   4.759773   4.420494   2.794929   2.566463
    22  H    4.226668   4.420496   4.759768   2.794930   3.114693
    23  C    5.132953   5.250693   5.250684   3.939755   4.226595
    24  H    5.250838   5.132703   5.427630   4.226615   4.759817
    25  H    5.250838   5.427643   5.132694   4.226615   4.420552
    26  C    6.470643   6.649024   6.649017   5.133026   5.250907
    27  H    6.649178   7.000078   6.773945   5.250907   5.132927
    28  H    6.649178   6.773949   7.000071   5.250907   5.427851
    29  C    7.699426   7.778332   7.778323   6.470643   6.649178
    30  H    7.778327   7.698984   7.898668   6.649020   7.000074
    31  H    7.778327   7.898679   7.698975   6.649021   6.773947
    32  C    9.021743   9.150411   9.150404   7.699664   7.778795
    33  H    9.151699   9.409651   9.242628   7.779791   7.700668
    34  H    9.151700   9.242634   9.409644   7.779791   7.900346
    35  C   10.266303  10.325521  10.325512   9.022104   9.151022
    36  H   10.324493  10.264835  10.415394   9.149690   9.407833
    37  H   10.324493  10.415405  10.264826   9.149690   9.240866
    38  C   11.573208  11.674183  11.674175  10.259164  10.318172
    39  H   11.720641  11.923122  11.790790  10.366702  10.307414
    40  H   11.720641  11.790796  11.923114  10.366702  10.458520
    41  C   12.805588  12.851202  12.851193  11.555429  11.658410
    42  H   12.855979  12.809355  12.929156  11.655272  11.857606
    43  H   13.687732  13.760691  13.760683  12.394472  12.457158
    44  H   12.855979  12.929166  12.809346  11.655272  11.726855
                   16         17         18         19         20
    16  H    0.000000
    17  C    2.165767   0.000000
    18  H    2.523500   1.106604   0.000000
    19  H    3.079387   1.106605   1.764803   0.000000
    20  C    2.794858   1.532276   2.165806   2.165804   0.000000
    21  H    3.114690   2.165820   3.079409   2.523535   1.106600
    22  H    2.566464   2.165821   2.523538   3.079409   1.106601
    23  C    4.226595   2.566480   2.794859   2.794857   1.532276
    24  H    4.420552   2.794858   2.566418   3.114647   2.165805
    25  H    4.759816   2.794858   3.114647   2.566416   2.165805
    26  C    5.250906   3.939755   4.226616   4.226614   2.566513
    27  H    5.427850   4.226595   4.759818   4.420551   2.794858
    28  H    5.132927   4.226595   4.420553   4.759816   2.794858
    29  C    6.649178   5.132953   5.250839   5.250837   3.939753
    30  H    6.773946   5.250688   5.132699   5.427636   4.226479
    31  H    7.000074   5.250688   5.427637   5.132697   4.226479
    32  C    7.778794   6.470694   6.649160   6.649158   5.133151
    33  H    7.900346   6.650268   7.001228   6.775104   5.252055
    34  H    7.700668   6.650268   6.775107   7.001226   5.252055
    35  C    9.151022   7.699830   7.778854   7.778852   6.471085
    36  H    9.240865   7.777669   7.698550   7.898186   6.648301
    37  H    9.407833   7.777669   7.898186   7.698548   6.648301
    38  C   10.318172   9.015510   9.145002   9.145000   7.692652
    39  H   10.458520   9.190519   9.447604   9.280051   7.819653
    40  H   10.307413   9.190519   9.280054   9.447602   7.819653
    41  C   11.658410  10.239128  10.296349  10.296347   8.998366
    42  H   11.726855  10.301085  10.243072  10.392504   9.125097
    43  H   12.457158  11.124158  11.214034  11.214032   9.828622
    44  H   11.857605  10.301085  10.392505  10.243070   9.125097
                   21         22         23         24         25
    21  H    0.000000
    22  H    1.764800   0.000000
    23  C    2.165821   2.165820   0.000000
    24  H    3.079409   2.523536   1.106604   0.000000
    25  H    2.523537   3.079409   1.106605   1.764803   0.000000
    26  C    2.794929   2.794929   1.532272   2.165823   2.165822
    27  H    2.566464   3.114692   2.165767   3.079387   2.523499
    28  H    3.114692   2.566463   2.165768   2.523500   3.079387
    29  C    4.226668   4.226668   2.566473   2.794881   2.794881
    30  H    4.759770   4.420494   2.794718   2.566281   3.114553
    31  H    4.420495   4.759770   2.794718   3.114553   2.566281
    32  C    5.251180   5.251179   3.939749   4.226548   4.226548
    33  H    5.134205   5.429105   4.227576   4.760689   4.421428
    34  H    5.429105   5.134204   4.227576   4.421430   4.760689
    35  C    6.649720   6.649719   5.133350   5.251215   5.251215
    36  H    6.999384   6.773306   5.249995   5.132132   5.427013
    37  H    6.773308   6.999383   5.249995   5.427012   5.132132
    38  C    7.771242   7.771241   6.464778   6.644242   6.644241
    39  H    7.740953   7.941043   6.688175   7.037345   6.810755
    40  H    7.941043   7.740952   6.688175   6.810756   7.037345
    41  C    9.130301   9.130300   7.672670   7.748937   7.748937
    42  H    9.382222   9.216422   7.753825   7.676658   7.874943
    43  H    9.907621   9.907621   8.562322   8.678839   8.678838
    44  H    9.216423   9.382221   7.753825   7.874943   7.676658
                   26         27         28         29         30
    26  C    0.000000
    27  H    1.106604   0.000000
    28  H    1.106605   1.764829   0.000000
    29  C    1.532276   2.165865   2.165866   0.000000
    30  H    2.165736   3.079406   2.523500   1.106641   0.000000
    31  H    2.165736   2.523500   3.079407   1.106641   1.764868
    32  C    2.566638   2.795257   2.795258   1.532064   2.165619
    33  H    2.795915   2.567741   3.115843   2.166275   3.079804
    34  H    2.795915   3.115841   2.567741   2.166275   2.523876
    35  C    3.940217   4.227224   4.227225   2.566877   2.795336
    36  H    4.225708   4.759031   4.419801   2.793972   2.565851
    37  H    4.225708   4.419801   4.759031   2.793972   3.114063
    38  C    5.126141   5.243382   5.243383   3.934614   4.223194
    39  H    5.291462   5.174492   5.469301   4.262836   4.792285
    40  H    5.291462   5.469299   5.174492   4.262837   4.452871
    41  C    6.448798   6.631692   6.631693   5.106240   5.220334
    42  H    6.622921   6.972969   6.748230   5.225400   5.110386
    43  H    7.263235   7.369829   7.369829   6.004473   6.169681
    44  H    6.622920   6.748230   6.972970   5.225399   5.403684
                   31         32         33         34         35
    31  H    0.000000
    32  C    2.165619   0.000000
    33  H    2.523875   1.106845   0.000000
    34  H    3.079804   1.106845   1.765143   0.000000
    35  C    2.795335   1.532375   2.165422   2.165422   0.000000
    36  H    3.114064   2.164458   3.077977   2.521836   1.105929
    37  H    2.565851   2.164458   2.521836   3.077977   1.105928
    38  C    4.223193   2.559510   2.785759   2.785759   1.530463
    39  H    4.452870   2.833092   2.606761   3.151766   2.187626
    40  H    4.792285   2.833091   3.151766   2.606760   2.187626
    41  C    5.220334   3.921125   4.214113   4.214113   2.539487
    42  H    5.403684   4.198774   4.730814   4.392762   2.767441
    43  H    6.169680   4.698917   4.860930   4.860929   3.459098
    44  H    5.110386   4.198773   4.392763   4.730814   2.767441
                   36         37         38         39         40
    36  H    0.000000
    37  H    1.764325   0.000000
    38  C    2.166969   2.166969   0.000000
    39  H    3.094791   2.537864   1.103625   0.000000
    40  H    2.537865   3.094791   1.103625   1.778004   0.000000
    41  C    2.762335   2.762335   1.540000   2.148623   2.148624
    42  H    2.544559   3.091534   2.148263   3.036238   2.472254
    43  H    3.739077   3.739076   2.148263   2.441889   2.441891
    44  H    3.091535   2.544558   2.148263   2.472253   3.036239
                   41         42         43         44
    41  C    0.000000
    42  H    1.070000   0.000000
    43  H    1.070000   1.747303   0.000000
    44  H    1.070000   1.747303   1.747303   0.000000
 Stoichiometry    C14H30
 Framework group  C1[X(C14H30)]
 Deg. of freedom   126
 Full point group                 C1      NOp   1
 Largest Abelian subgroup         C1      NOp   1
 Largest concise Abelian subgroup C1      NOp   1
                         Standard orientation:                         
 ---------------------------------------------------------------------
 Center     Atomic      Atomic             Coordinates (Angstroms)
 Number     Number       Type             X           Y           Z
 ---------------------------------------------------------------------
      1          6           0       -8.336791    0.320059   -0.000015
      2          1           0       -8.393470    0.971559   -0.889018
      3          1           0       -8.393494    0.971556    0.888987
      4          1           0       -9.232611   -0.321968   -0.000031
      5          6           0       -7.049955   -0.508415    0.000005
      6          1           0       -7.040125   -1.175328    0.882167
      7          1           0       -7.040105   -1.175324   -0.882158
      8          6           0       -5.777405    0.345277    0.000015
      9          1           0       -5.787060    1.013155    0.882597
     10          1           0       -5.787061    1.013184   -0.882546
     11          6           0       -4.483298   -0.474788    0.000000
     12          1           0       -4.474479   -1.142528   -0.882440
     13          1           0       -4.474470   -1.142542    0.882428
     14          6           0       -3.210990    0.379086    0.000001
     15          1           0       -3.219541    1.046801    0.882416
     16          1           0       -3.219541    1.046803   -0.882412
     17          6           0       -1.917039   -0.441615    0.000000
     18          1           0       -1.908408   -1.109348   -0.882401
     19          1           0       -1.908406   -1.109347    0.882402
     20          6           0       -0.644690    0.412198    0.000001
     21          1           0       -0.653291    1.079925    0.882401
     22          1           0       -0.653291    1.079927   -0.882399
     23          6           0        0.649228   -0.408561   -0.000001
     24          1           0        0.657796   -1.076293   -0.882402
     25          1           0        0.657797   -1.076295    0.882401
     26          6           0        1.921611    0.445195    0.000001
     27          1           0        1.912961    1.112908    0.882415
     28          1           0        1.912960    1.112911   -0.882414
     29          6           0        3.215489   -0.375626   -0.000001
     30          1           0        3.223866   -1.043378   -0.882436
     31          1           0        3.223867   -1.043380    0.882432
     32          6           0        4.488045    0.477498    0.000000
     33          1           0        4.480496    1.145416    0.882573
     34          1           0        4.480496    1.145420   -0.882570
     35          6           0        5.782161   -0.343135   -0.000001
     36          1           0        5.789501   -1.010076   -0.882166
     37          1           0        5.789502   -1.010079    0.882159
     38          6           0        7.047231    0.518209    0.000000
     39          1           0        7.087124    1.170949    0.889003
     40          1           0        7.087123    1.170954   -0.889001
     41          6           0        8.321646   -0.346353   -0.000002
     42          1           0        8.333629   -0.964000   -0.873654
     43          1           0        9.183150    0.288242    0.000000
     44          1           0        8.333628   -0.964004    0.873648
 ---------------------------------------------------------------------
 Rotational constants (GHZ):           5.9864880           0.0929260           0.0922400
 Standard basis: CC-pVDZ (5D, 7F)
 There are   360 symmetry adapted cartesian basis functions of A   symmetry.
 There are   346 symmetry adapted basis functions of A   symmetry.
   346 basis functions,   672 primitive gaussians,   360 cartesian basis functions
    57 alpha electrons       57 beta electrons
       nuclear repulsion energy       830.9762326772 Hartrees.
 NAtoms=   44 NActive=   44 NUniq=   44 SFac= 1.00D+00 NAtFMM=   60 NAOKFM=F Big=F
 Integral buffers will be    131072 words long.
 Raffenetti 2 integral format.
 Two-electron integral symmetry is turned on.
 One-electron integrals computed using PRISM.
 NBasis=   346 RedAO= T EigKep=  1.39D-03  NBF=   346
 NBsUse=   346 1.00D-06 EigRej= -1.00D+00 NBFU=   346
 ExpMin= 1.22D-01 ExpMax= 6.67D+03 ExpMxC= 2.28D+02 IAcc=3 IRadAn=         5 AccDes= 0.00D+00
 Harris functional with IExCor=  402 and IRadAn=       5 diagonalized for initial guess.
 HarFok:  IExCor=  402 AccDes= 0.00D+00 IRadAn=         5 IDoV= 1 UseB2=F ITyADJ=14
 ICtDFT=  3500011 ScaDFX=  1.000000  1.000000  1.000000  1.000000
 FoFCou: FMM=F IPFlag=           0 FMFlag=      100000 FMFlg1=           0
         NFxFlg=           0 DoJE=T BraDBF=F KetDBF=T FulRan=T
         wScrn=  0.000000 ICntrl=       500 IOpCl=  0 I1Cent=   200000004 NGrid=           0
         NMat0=    1 NMatS0=      1 NMatT0=    0 NMatD0=    1 NMtDS0=    0 NMtDT0=    0
 Petite list used in FoFCou.
 Requested convergence on RMS density matrix=1.00D-08 within 128 cycles.
 Requested convergence on MAX density matrix=1.00D-06.
 Requested convergence on             energy=1.00D-06.
 No special actions if energy rises.
 Integral accuracy reduced to 1.0D-05 until final iterations.
 Initial convergence to 1.0D-05 achieved.  Increase integral accuracy.
 SCF Done:  E(RB3LYP) =  -551.601148581     A.U. after   11 cycles
            NFock= 11  Conv=0.54D-08     -V/T= 2.0086

 **********************************************************************

            Population analysis using the SCF density.

 **********************************************************************

 Orbital symmetries:
       Occupied  (A) (A) (A) (A) (A) (A) (A) (A) (A) (A) (A) (A)
                 (A) (A) (A) (A) (A) (A) (A) (A) (A) (A) (A) (A)
                 (A) (A) (A) (A) (A) (A) (A) (A) (A) (A) (A) (A)
                 (A) (A) (A) (A) (A) (A) (A) (A) (A) (A) (A) (A)
                 (A) (A) (A) (A) (A) (A) (A) (A) (A)
       Virtual   (A) (A) (A) (A) (A) (A) (A) (A) (A) (A) (A) (A)
                 (A) (A) (A) (A) (A) (A) (A) (A) (A) (A) (A) (A)
                 (A) (A) (A) (A) (A) (A) (A) (A) (A) (A) (A) (A)
                 (A) (A) (A) (A) (A) (A) (A) (A) (A) (A) (A) (A)
                 (A) (A) (A) (A) (A) (A) (A) (A) (A) (A) (A) (A)
                 (A) (A) (A) (A) (A) (A) (A) (A) (A) (A) (A) (A)
                 (A) (A) (A) (A) (A) (A) (A) (A) (A) (A) (A) (A)
                 (A) (A) (A) (A) (A) (A) (A) (A) (A) (A) (A) (A)
                 (A) (A) (A) (A) (A) (A) (A) (A) (A) (A) (A) (A)
                 (A) (A) (A) (A) (A) (A) (A) (A) (A) (A) (A) (A)
                 (A) (A) (A) (A) (A) (A) (A) (A) (A) (A) (A) (A)
                 (A) (A) (A) (A) (A) (A) (A) (A) (A) (A) (A) (A)
                 (A) (A) (A) (A) (A) (A) (A) (A) (A) (A) (A) (A)
                 (A) (A) (A) (A) (A) (A) (A) (A) (A) (A) (A) (A)
                 (A) (A) (A) (A) (A) (A) (A) (A) (A) (A) (A) (A)
                 (A) (A) (A) (A) (A) (A) (A) (A) (A) (A) (A) (A)
                 (A) (A) (A) (A) (A) (A) (A) (A) (A) (A) (A) (A)
                 (A) (A) (A) (A) (A) (A) (A) (A) (A) (A) (A) (A)
                 (A) (A) (A) (A) (A) (A) (A) (A) (A) (A) (A) (A)
                 (A) (A) (A) (A) (A) (A) (A) (A) (A) (A) (A) (A)
                 (A) (A) (A) (A) (A) (A) (A) (A) (A) (A) (A) (A)
                 (A) (A) (A) (A) (A) (A) (A) (A) (A) (A) (A) (A)
                 (A) (A) (A) (A) (A) (A) (A) (A) (A) (A) (A) (A)
                 (A) (A) (A) (A) (A) (A) (A) (A) (A) (A) (A) (A)
                 (A)
 The electronic state is 1-A.
 Alpha  occ. eigenvalues --  -10.17999 -10.17826 -10.17756 -10.17747 -10.17739
 Alpha  occ. eigenvalues --  -10.17733 -10.17729 -10.17728 -10.17720 -10.17712
 Alpha  occ. eigenvalues --  -10.17699 -10.17660 -10.17566 -10.16505  -0.81254
 Alpha  occ. eigenvalues --   -0.80416  -0.79021  -0.77081  -0.74629  -0.71719
 Alpha  occ. eigenvalues --   -0.68427  -0.64888  -0.61388  -0.58509  -0.57418
 Alpha  occ. eigenvalues --   -0.57163  -0.56717  -0.56591  -0.48307  -0.47553
 Alpha  occ. eigenvalues --   -0.46311  -0.44621  -0.43449  -0.42810  -0.42571
 Alpha  occ. eigenvalues --   -0.42131  -0.41084  -0.40294  -0.39144  -0.38842
 Alpha  occ. eigenvalues --   -0.37968  -0.36752  -0.35802  -0.35224  -0.34826
 Alpha  occ. eigenvalues --   -0.34015  -0.33513  -0.32753  -0.32672  -0.32155
 Alpha  occ. eigenvalues --   -0.32003  -0.31936  -0.31709  -0.31604  -0.31574
 Alpha  occ. eigenvalues --   -0.31470  -0.28990
 Alpha virt. eigenvalues --    0.05911   0.06142   0.06577   0.07302   0.07357
 Alpha virt. eigenvalues --    0.07844   0.08363   0.08496   0.08847   0.10034
 Alpha virt. eigenvalues --    0.10241   0.10675   0.12329   0.12480   0.13104
 Alpha virt. eigenvalues --    0.14431   0.14996   0.15439   0.15713   0.15796
 Alpha virt. eigenvalues --    0.15818   0.15929   0.16040   0.16572   0.17941
 Alpha virt. eigenvalues --    0.18276   0.18364   0.18704   0.18996   0.20035
 Alpha virt. eigenvalues --    0.20291   0.20984   0.21397   0.21827   0.22841
 Alpha virt. eigenvalues --    0.23982   0.24283   0.25167   0.26553   0.26690
 Alpha virt. eigenvalues --    0.28326   0.32118   0.32445   0.36898   0.40170
 Alpha virt. eigenvalues --    0.40612   0.41042   0.41342   0.41594   0.42047
 Alpha virt. eigenvalues --    0.42251   0.42874   0.43559   0.43993   0.44900
 Alpha virt. eigenvalues --    0.47025   0.47651   0.48538   0.50265   0.51970
 Alpha virt. eigenvalues --    0.53273   0.54853   0.55920   0.56875   0.58189
 Alpha virt. eigenvalues --    0.61036   0.62049   0.62383   0.62680   0.63577
 Alpha virt. eigenvalues --    0.63681   0.63693   0.64331   0.64367   0.64703
 Alpha virt. eigenvalues --    0.64935   0.65102   0.65247   0.65664   0.66078
 Alpha virt. eigenvalues --    0.66293   0.66356   0.66397   0.66913   0.67106
 Alpha virt. eigenvalues --    0.67130   0.67400   0.67567   0.67769   0.69075
 Alpha virt. eigenvalues --    0.69204   0.69314   0.69462   0.69478   0.70032
 Alpha virt. eigenvalues --    0.71017   0.71244   0.71366   0.71482   0.71491
 Alpha virt. eigenvalues --    0.71922   0.72283   0.72652   0.73469   0.74193
 Alpha virt. eigenvalues --    0.74476   0.75050   0.75936   0.78607   0.79729
 Alpha virt. eigenvalues --    0.81432   0.85747   0.86015   0.86725   0.89275
 Alpha virt. eigenvalues --    0.90399   0.90412   0.92873   0.98888   1.04057
 Alpha virt. eigenvalues --    1.08819   1.10913   1.12622   1.15689   1.18919
 Alpha virt. eigenvalues --    1.19293   1.20073   1.20311   1.20642   1.20722
 Alpha virt. eigenvalues --    1.21234   1.21291   1.22019   1.22183   1.22883
 Alpha virt. eigenvalues --    1.23103   1.23660   1.23742   1.23968   1.24160
 Alpha virt. eigenvalues --    1.24561   1.28041   1.28409   1.32803   1.33562
 Alpha virt. eigenvalues --    1.40235   1.40548   1.42648   1.43528   1.43746
 Alpha virt. eigenvalues --    1.44725   1.45142   1.45832   1.46075   1.46398
 Alpha virt. eigenvalues --    1.49476   1.55762   1.57743   1.59270   1.60875
 Alpha virt. eigenvalues --    1.61696   1.61816   1.62028   1.62380   1.62427
 Alpha virt. eigenvalues --    1.62747   1.63665   1.63791   1.63915   1.64668
 Alpha virt. eigenvalues --    1.64980   1.65338   1.66264   1.66269   1.66638
 Alpha virt. eigenvalues --    1.66781   1.67374   1.67719   1.68659   1.69431
 Alpha virt. eigenvalues --    1.69501   1.69801   1.69902   1.70278   1.70451
 Alpha virt. eigenvalues --    1.70746   1.71228   1.71715   1.71725   1.72080
 Alpha virt. eigenvalues --    1.72315   1.72391   1.73094   1.73136   1.73174
 Alpha virt. eigenvalues --    1.73922   1.74190   1.74761   1.75444   1.76539
 Alpha virt. eigenvalues --    1.77312   1.77358   1.77517   1.78031   1.80463
 Alpha virt. eigenvalues --    1.81272   1.81287   1.81371   1.83001   1.83659
 Alpha virt. eigenvalues --    1.84073   1.84632   1.86255   1.86812   1.87345
 Alpha virt. eigenvalues --    1.91636   1.93042   1.96315   1.96817   1.97954
 Alpha virt. eigenvalues --    1.99227   1.99330   2.01516   2.02507   2.05441
 Alpha virt. eigenvalues --    2.05693   2.06496   2.07269   2.07460   2.11029
 Alpha virt. eigenvalues --    2.12251   2.13085   2.15406   2.17288   2.18277
 Alpha virt. eigenvalues --    2.20020   2.20256   2.22257   2.22583   2.24597
 Alpha virt. eigenvalues --    2.25760   2.26470   2.27728   2.29070   2.29101
 Alpha virt. eigenvalues --    2.29104   2.30370   2.30789   2.32147   2.32229
 Alpha virt. eigenvalues --    2.32657   2.32878   2.33570   2.34196   2.34414
 Alpha virt. eigenvalues --    2.34808   2.35140   2.35536   2.38118   2.39107
 Alpha virt. eigenvalues --    2.39248   2.41231   2.41380   2.44210   2.44904
 Alpha virt. eigenvalues --    2.44954   2.45926   2.46416   2.48990   2.49846
 Alpha virt. eigenvalues --    2.51332   2.51532   2.53244   2.55312   2.57561
 Alpha virt. eigenvalues --    2.58105   2.59064   2.61344   2.62754   2.63356
 Alpha virt. eigenvalues --    2.63926   2.67400   2.68012   2.69453   2.70812
 Alpha virt. eigenvalues --    2.76259   2.77132   2.80956   2.81272
          Condensed to atoms (all electrons):
               1          2          3          4          5          6
     1  C    4.511358   0.386185   0.386185   0.374111   0.443238  -0.026448
     2  H    0.386185   0.683451  -0.032443  -0.031021  -0.023114   0.008998
     3  H    0.386185  -0.032443   0.683452  -0.031020  -0.023114  -0.008773
     4  H    0.374111  -0.031021  -0.031020   0.691283  -0.009043  -0.005089
     5  C    0.443238  -0.023114  -0.023114  -0.009043   4.567923   0.369099
     6  H   -0.026448   0.008998  -0.008773  -0.005089   0.369099   0.728012
     7  H   -0.026448  -0.008773   0.008998  -0.005089   0.369099  -0.044484
     8  C   -0.040862  -0.004834  -0.004834   0.004798   0.440697  -0.025739
     9  H   -0.004427  -0.001812   0.007094   0.000006  -0.029562  -0.011540
    10  H   -0.004428   0.007094  -0.001812   0.000006  -0.029562   0.010356
    11  C    0.004281   0.000395   0.000395  -0.000316  -0.034828  -0.004206
    12  H    0.000237  -0.000032   0.000041   0.000004  -0.004827  -0.002175
    13  H    0.000237   0.000041  -0.000032   0.000004  -0.004827   0.007795
    14  C   -0.000207   0.000003   0.000003   0.000006   0.003927   0.000324
    15  H    0.000005   0.000003  -0.000006   0.000000   0.000266  -0.000033
    16  H    0.000005  -0.000006   0.000003   0.000000   0.000266   0.000039
    17  C    0.000002   0.000000   0.000000   0.000000  -0.000173   0.000010
    18  H    0.000000   0.000000   0.000000   0.000000   0.000007   0.000003
    19  H    0.000000   0.000000   0.000000   0.000000   0.000007  -0.000008
    20  C    0.000000   0.000000   0.000000   0.000000   0.000002   0.000000
    21  H    0.000000   0.000000   0.000000   0.000000   0.000000   0.000000
    22  H    0.000000   0.000000   0.000000   0.000000   0.000000   0.000000
    23  C    0.000000   0.000000   0.000000   0.000000   0.000000   0.000000
    24  H    0.000000   0.000000   0.000000   0.000000   0.000000   0.000000
    25  H    0.000000   0.000000   0.000000   0.000000   0.000000   0.000000
    26  C    0.000000   0.000000   0.000000   0.000000   0.000000   0.000000
    27  H    0.000000   0.000000   0.000000   0.000000   0.000000   0.000000
    28  H    0.000000   0.000000   0.000000   0.000000   0.000000   0.000000
    29  C    0.000000   0.000000   0.000000   0.000000   0.000000   0.000000
    30  H    0.000000   0.000000   0.000000   0.000000   0.000000   0.000000
    31  H    0.000000   0.000000   0.000000   0.000000   0.000000   0.000000
    32  C    0.000000   0.000000   0.000000   0.000000   0.000000   0.000000
    33  H    0.000000   0.000000   0.000000   0.000000   0.000000   0.000000
    34  H    0.000000   0.000000   0.000000   0.000000   0.000000   0.000000
    35  C    0.000000   0.000000   0.000000   0.000000   0.000000   0.000000
    36  H    0.000000   0.000000   0.000000   0.000000   0.000000   0.000000
    37  H    0.000000   0.000000   0.000000   0.000000   0.000000   0.000000
    38  C    0.000000   0.000000   0.000000   0.000000   0.000000   0.000000
    39  H    0.000000   0.000000   0.000000   0.000000   0.000000   0.000000
    40  H    0.000000   0.000000   0.000000   0.000000   0.000000   0.000000
    41  C    0.000000   0.000000   0.000000   0.000000   0.000000   0.000000
    42  H    0.000000   0.000000   0.000000   0.000000   0.000000   0.000000
    43  H    0.000000   0.000000   0.000000   0.000000   0.000000   0.000000
    44  H    0.000000   0.000000   0.000000   0.000000   0.000000   0.000000
               7          8          9         10         11         12
     1  C   -0.026448  -0.040862  -0.004427  -0.004428   0.004281   0.000237
     2  H   -0.008773  -0.004834  -0.001812   0.007094   0.000395  -0.000032
     3  H    0.008998  -0.004834   0.007094  -0.001812   0.000395   0.000041
     4  H   -0.005089   0.004798   0.000006   0.000006  -0.000316   0.000004
     5  C    0.369099   0.440697  -0.029562  -0.029562  -0.034828  -0.004827
     6  H   -0.044484  -0.025739  -0.011540   0.010356  -0.004206  -0.002175
     7  H    0.728013  -0.025740   0.010356  -0.011539  -0.004206   0.007796
     8  C   -0.025740   4.595787   0.366057   0.366058   0.429673  -0.026735
     9  H    0.010356   0.366057   0.734569  -0.046163  -0.024926   0.010347
    10  H   -0.011539   0.366058  -0.046163   0.734569  -0.024927  -0.011497
    11  C   -0.004206   0.429673  -0.024926  -0.024927   4.595856   0.364116
    12  H    0.007796  -0.026735   0.010347  -0.011497   0.364116   0.734123
    13  H   -0.002175  -0.026735  -0.011498   0.010347   0.364115  -0.045963
    14  C    0.000324  -0.034781  -0.004501  -0.004501   0.430130  -0.025581
    15  H    0.000039  -0.004870   0.007720  -0.002185  -0.026019   0.010337
    16  H   -0.000033  -0.004870  -0.002185   0.007720  -0.026019  -0.011525
    17  C    0.000010   0.003788   0.000350   0.000350  -0.035564  -0.004614
    18  H   -0.000008   0.000300   0.000039  -0.000032  -0.004758   0.007756
    19  H    0.000003   0.000300  -0.000032   0.000039  -0.004758  -0.002201
    20  C    0.000000  -0.000176   0.000008   0.000008   0.003812   0.000325
    21  H    0.000000   0.000007  -0.000008   0.000003   0.000313   0.000039
    22  H    0.000000   0.000007   0.000003  -0.000008   0.000313  -0.000033
    23  C    0.000000   0.000002   0.000000   0.000000  -0.000175   0.000008
    24  H    0.000000   0.000000   0.000000   0.000000   0.000008  -0.000008
    25  H    0.000000   0.000000   0.000000   0.000000   0.000008   0.000003
    26  C    0.000000   0.000000   0.000000   0.000000   0.000002   0.000000
    27  H    0.000000   0.000000   0.000000   0.000000   0.000000   0.000000
    28  H    0.000000   0.000000   0.000000   0.000000   0.000000   0.000000
    29  C    0.000000   0.000000   0.000000   0.000000   0.000000   0.000000
    30  H    0.000000   0.000000   0.000000   0.000000   0.000000   0.000000
    31  H    0.000000   0.000000   0.000000   0.000000   0.000000   0.000000
    32  C    0.000000   0.000000   0.000000   0.000000   0.000000   0.000000
    33  H    0.000000   0.000000   0.000000   0.000000   0.000000   0.000000
    34  H    0.000000   0.000000   0.000000   0.000000   0.000000   0.000000
    35  C    0.000000   0.000000   0.000000   0.000000   0.000000   0.000000
    36  H    0.000000   0.000000   0.000000   0.000000   0.000000   0.000000
    37  H    0.000000   0.000000   0.000000   0.000000   0.000000   0.000000
    38  C    0.000000   0.000000   0.000000   0.000000   0.000000   0.000000
    39  H    0.000000   0.000000   0.000000   0.000000   0.000000   0.000000
    40  H    0.000000   0.000000   0.000000   0.000000   0.000000   0.000000
    41  C    0.000000   0.000000   0.000000   0.000000   0.000000   0.000000
    42  H    0.000000   0.000000   0.000000   0.000000   0.000000   0.000000
    43  H    0.000000   0.000000   0.000000   0.000000   0.000000   0.000000
    44  H    0.000000   0.000000   0.000000   0.000000   0.000000   0.000000
              13         14         15         16         17         18
     1  C    0.000237  -0.000207   0.000005   0.000005   0.000002   0.000000
     2  H    0.000041   0.000003   0.000003  -0.000006   0.000000   0.000000
     3  H   -0.000032   0.000003  -0.000006   0.000003   0.000000   0.000000
     4  H    0.000004   0.000006   0.000000   0.000000   0.000000   0.000000
     5  C   -0.004827   0.003927   0.000266   0.000266  -0.000173   0.000007
     6  H    0.007795   0.000324  -0.000033   0.000039   0.000010   0.000003
     7  H   -0.002175   0.000324   0.000039  -0.000033   0.000010  -0.000008
     8  C   -0.026735  -0.034781  -0.004870  -0.004870   0.003788   0.000300
     9  H   -0.011498  -0.004501   0.007720  -0.002185   0.000350   0.000039
    10  H    0.010347  -0.004501  -0.002185   0.007720   0.000350  -0.000032
    11  C    0.364115   0.430130  -0.026019  -0.026019  -0.035564  -0.004758
    12  H   -0.045963  -0.025581   0.010337  -0.011525  -0.004614   0.007756
    13  H    0.734123  -0.025581  -0.011525   0.010337  -0.004614  -0.002201
    14  C   -0.025581   4.597213   0.363489   0.363488   0.431016  -0.025870
    15  H   -0.011525   0.363489   0.733993  -0.046010  -0.025473   0.010342
    16  H    0.010337   0.363488  -0.046010   0.733992  -0.025473  -0.011529
    17  C   -0.004614   0.431016  -0.025473  -0.025473   4.595988   0.363355
    18  H   -0.002201  -0.025870   0.010342  -0.011529   0.363355   0.734124
    19  H    0.007756  -0.025870  -0.011529   0.010342   0.363355  -0.046007
    20  C    0.000325  -0.035916  -0.004692  -0.004691   0.431644  -0.025640
    21  H   -0.000033  -0.004751   0.007747  -0.002203  -0.025691   0.010341
    22  H    0.000039  -0.004751  -0.002203   0.007747  -0.025691  -0.011528
    23  C    0.000008   0.003842   0.000321   0.000321  -0.036029  -0.004709
    24  H    0.000003   0.000314   0.000038  -0.000033  -0.004737   0.007752
    25  H   -0.000008   0.000314  -0.000033   0.000038  -0.004737  -0.002202
    26  C    0.000000  -0.000176   0.000008   0.000008   0.003846   0.000318
    27  H    0.000000   0.000008  -0.000008   0.000003   0.000317   0.000038
    28  H    0.000000   0.000008   0.000003  -0.000008   0.000317  -0.000033
    29  C    0.000000   0.000002   0.000000   0.000000  -0.000176   0.000008
    30  H    0.000000   0.000000   0.000000   0.000000   0.000008  -0.000008
    31  H    0.000000   0.000000   0.000000   0.000000   0.000008   0.000003
    32  C    0.000000   0.000000   0.000000   0.000000   0.000002   0.000000
    33  H    0.000000   0.000000   0.000000   0.000000   0.000000   0.000000
    34  H    0.000000   0.000000   0.000000   0.000000   0.000000   0.000000
    35  C    0.000000   0.000000   0.000000   0.000000   0.000000   0.000000
    36  H    0.000000   0.000000   0.000000   0.000000   0.000000   0.000000
    37  H    0.000000   0.000000   0.000000   0.000000   0.000000   0.000000
    38  C    0.000000   0.000000   0.000000   0.000000   0.000000   0.000000
    39  H    0.000000   0.000000   0.000000   0.000000   0.000000   0.000000
    40  H    0.000000   0.000000   0.000000   0.000000   0.000000   0.000000
    41  C    0.000000   0.000000   0.000000   0.000000   0.000000   0.000000
    42  H    0.000000   0.000000   0.000000   0.000000   0.000000   0.000000
    43  H    0.000000   0.000000   0.000000   0.000000   0.000000   0.000000
    44  H    0.000000   0.000000   0.000000   0.000000   0.000000   0.000000
              19         20         21         22         23         24
     1  C    0.000000   0.000000   0.000000   0.000000   0.000000   0.000000
     2  H    0.000000   0.000000   0.000000   0.000000   0.000000   0.000000
     3  H    0.000000   0.000000   0.000000   0.000000   0.000000   0.000000
     4  H    0.000000   0.000000   0.000000   0.000000   0.000000   0.000000
     5  C    0.000007   0.000002   0.000000   0.000000   0.000000   0.000000
     6  H   -0.000008   0.000000   0.000000   0.000000   0.000000   0.000000
     7  H    0.000003   0.000000   0.000000   0.000000   0.000000   0.000000
     8  C    0.000300  -0.000176   0.000007   0.000007   0.000002   0.000000
     9  H   -0.000032   0.000008  -0.000008   0.000003   0.000000   0.000000
    10  H    0.000039   0.000008   0.000003  -0.000008   0.000000   0.000000
    11  C   -0.004758   0.003812   0.000313   0.000313  -0.000175   0.000008
    12  H   -0.002201   0.000325   0.000039  -0.000033   0.000008  -0.000008
    13  H    0.007756   0.000325  -0.000033   0.000039   0.000008   0.000003
    14  C   -0.025870  -0.035916  -0.004751  -0.004751   0.003842   0.000314
    15  H   -0.011529  -0.004692   0.007747  -0.002203   0.000321   0.000038
    16  H    0.010342  -0.004691  -0.002203   0.007747   0.000321  -0.000033
    17  C    0.363355   0.431644  -0.025691  -0.025691  -0.036029  -0.004737
    18  H   -0.046007  -0.025640   0.010341  -0.011528  -0.004709   0.007752
    19  H    0.734125  -0.025640  -0.011528   0.010342  -0.004709  -0.002203
    20  C   -0.025640   4.595346   0.363229   0.363229   0.431876  -0.025680
    21  H   -0.011528   0.363229   0.734107  -0.046013  -0.025663   0.010343
    22  H    0.010342   0.363229  -0.046013   0.734107  -0.025663  -0.011531
    23  C   -0.004709   0.431876  -0.025663  -0.025663   4.595492   0.363198
    24  H   -0.002203  -0.025680   0.010343  -0.011531   0.363198   0.734232
    25  H    0.007752  -0.025680  -0.011531   0.010343   0.363198  -0.046030
    26  C    0.000318  -0.036021  -0.004727  -0.004727   0.431653  -0.025670
    27  H   -0.000033  -0.004712   0.007750  -0.002202  -0.025695   0.010344
    28  H    0.000038  -0.004712  -0.002202   0.007750  -0.025695  -0.011532
    29  C    0.000008   0.003838   0.000314   0.000314  -0.035897  -0.004757
    30  H    0.000003   0.000321   0.000038  -0.000033  -0.004710   0.007757
    31  H   -0.000008   0.000321  -0.000033   0.000038  -0.004710  -0.002204
    32  C    0.000000  -0.000175   0.000008   0.000008   0.003832   0.000313
    33  H    0.000000   0.000008  -0.000008   0.000003   0.000325   0.000038
    34  H    0.000000   0.000008   0.000003  -0.000008   0.000325  -0.000033
    35  C    0.000000   0.000002   0.000000   0.000000  -0.000177   0.000008
    36  H    0.000000   0.000000   0.000000   0.000000   0.000008  -0.000008
    37  H    0.000000   0.000000   0.000000   0.000000   0.000008   0.000003
    38  C    0.000000   0.000000   0.000000   0.000000   0.000002   0.000000
    39  H    0.000000   0.000000   0.000000   0.000000   0.000000   0.000000
    40  H    0.000000   0.000000   0.000000   0.000000   0.000000   0.000000
    41  C    0.000000   0.000000   0.000000   0.000000   0.000000   0.000000
    42  H    0.000000   0.000000   0.000000   0.000000   0.000000   0.000000
    43  H    0.000000   0.000000   0.000000   0.000000   0.000000   0.000000
    44  H    0.000000   0.000000   0.000000   0.000000   0.000000   0.000000
              25         26         27         28         29         30
     1  C    0.000000   0.000000   0.000000   0.000000   0.000000   0.000000
     2  H    0.000000   0.000000   0.000000   0.000000   0.000000   0.000000
     3  H    0.000000   0.000000   0.000000   0.000000   0.000000   0.000000
     4  H    0.000000   0.000000   0.000000   0.000000   0.000000   0.000000
     5  C    0.000000   0.000000   0.000000   0.000000   0.000000   0.000000
     6  H    0.000000   0.000000   0.000000   0.000000   0.000000   0.000000
     7  H    0.000000   0.000000   0.000000   0.000000   0.000000   0.000000
     8  C    0.000000   0.000000   0.000000   0.000000   0.000000   0.000000
     9  H    0.000000   0.000000   0.000000   0.000000   0.000000   0.000000
    10  H    0.000000   0.000000   0.000000   0.000000   0.000000   0.000000
    11  C    0.000008   0.000002   0.000000   0.000000   0.000000   0.000000
    12  H    0.000003   0.000000   0.000000   0.000000   0.000000   0.000000
    13  H   -0.000008   0.000000   0.000000   0.000000   0.000000   0.000000
    14  C    0.000314  -0.000176   0.000008   0.000008   0.000002   0.000000
    15  H   -0.000033   0.000008  -0.000008   0.000003   0.000000   0.000000
    16  H    0.000038   0.000008   0.000003  -0.000008   0.000000   0.000000
    17  C   -0.004737   0.003846   0.000317   0.000317  -0.000176   0.000008
    18  H   -0.002202   0.000318   0.000038  -0.000033   0.000008  -0.000008
    19  H    0.007752   0.000318  -0.000033   0.000038   0.000008   0.000003
    20  C   -0.025680  -0.036021  -0.004712  -0.004712   0.003838   0.000321
    21  H   -0.011531  -0.004727   0.007750  -0.002202   0.000314   0.000038
    22  H    0.010343  -0.004727  -0.002202   0.007750   0.000314  -0.000033
    23  C    0.363198   0.431653  -0.025695  -0.025695  -0.035897  -0.004710
    24  H   -0.046030  -0.025670   0.010344  -0.011532  -0.004757   0.007757
    25  H    0.734232  -0.025670  -0.011532   0.010344  -0.004757  -0.002204
    26  C   -0.025670   4.595821   0.363379   0.363379   0.430926  -0.025493
    27  H   -0.011532   0.363379   0.734196  -0.046014  -0.025841   0.010351
    28  H    0.010344   0.363379  -0.046014   0.734196  -0.025841  -0.011532
    29  C   -0.004757   0.430926  -0.025841  -0.025841   4.597334   0.363327
    30  H   -0.002204  -0.025493   0.010351  -0.011532   0.363327   0.734707
    31  H    0.007757  -0.025493  -0.011532   0.010351   0.363327  -0.046103
    32  C    0.000313  -0.035621  -0.004748  -0.004748   0.430689  -0.026060
    33  H   -0.000033  -0.004667   0.007733  -0.002192  -0.025583   0.010349
    34  H    0.000038  -0.004667  -0.002192   0.007733  -0.025583  -0.011545
    35  C    0.000008   0.003751   0.000305   0.000305  -0.034869  -0.004876
    36  H    0.000003   0.000341   0.000040  -0.000033  -0.004428   0.007790
    37  H   -0.000008   0.000341  -0.000033   0.000040  -0.004428  -0.002205
    38  C    0.000000  -0.000182   0.000006   0.000006   0.004085   0.000262
    39  H    0.000000   0.000009  -0.000007   0.000003   0.000291   0.000034
    40  H    0.000000   0.000009   0.000003  -0.000007   0.000291  -0.000031
    41  C    0.000000   0.000002   0.000000   0.000000  -0.000209   0.000005
    42  H    0.000000   0.000000   0.000000   0.000000   0.000004  -0.000007
    43  H    0.000000   0.000000   0.000000   0.000000   0.000006   0.000000
    44  H    0.000000   0.000000   0.000000   0.000000   0.000004   0.000003
              31         32         33         34         35         36
     1  C    0.000000   0.000000   0.000000   0.000000   0.000000   0.000000
     2  H    0.000000   0.000000   0.000000   0.000000   0.000000   0.000000
     3  H    0.000000   0.000000   0.000000   0.000000   0.000000   0.000000
     4  H    0.000000   0.000000   0.000000   0.000000   0.000000   0.000000
     5  C    0.000000   0.000000   0.000000   0.000000   0.000000   0.000000
     6  H    0.000000   0.000000   0.000000   0.000000   0.000000   0.000000
     7  H    0.000000   0.000000   0.000000   0.000000   0.000000   0.000000
     8  C    0.000000   0.000000   0.000000   0.000000   0.000000   0.000000
     9  H    0.000000   0.000000   0.000000   0.000000   0.000000   0.000000
    10  H    0.000000   0.000000   0.000000   0.000000   0.000000   0.000000
    11  C    0.000000   0.000000   0.000000   0.000000   0.000000   0.000000
    12  H    0.000000   0.000000   0.000000   0.000000   0.000000   0.000000
    13  H    0.000000   0.000000   0.000000   0.000000   0.000000   0.000000
    14  C    0.000000   0.000000   0.000000   0.000000   0.000000   0.000000
    15  H    0.000000   0.000000   0.000000   0.000000   0.000000   0.000000
    16  H    0.000000   0.000000   0.000000   0.000000   0.000000   0.000000
    17  C    0.000008   0.000002   0.000000   0.000000   0.000000   0.000000
    18  H    0.000003   0.000000   0.000000   0.000000   0.000000   0.000000
    19  H   -0.000008   0.000000   0.000000   0.000000   0.000000   0.000000
    20  C    0.000321  -0.000175   0.000008   0.000008   0.000002   0.000000
    21  H   -0.000033   0.000008  -0.000008   0.000003   0.000000   0.000000
    22  H    0.000038   0.000008   0.000003  -0.000008   0.000000   0.000000
    23  C   -0.004710   0.003832   0.000325   0.000325  -0.000177   0.000008
    24  H   -0.002204   0.000313   0.000038  -0.000033   0.000008  -0.000008
    25  H    0.007757   0.000313  -0.000033   0.000038   0.000008   0.000003
    26  C   -0.025493  -0.035621  -0.004667  -0.004667   0.003751   0.000341
    27  H   -0.011532  -0.004748   0.007733  -0.002192   0.000305   0.000040
    28  H    0.010351  -0.004748  -0.002192   0.007733   0.000305  -0.000033
    29  C    0.363327   0.430689  -0.025583  -0.025583  -0.034869  -0.004428
    30  H   -0.046103  -0.026060   0.010349  -0.011545  -0.004876   0.007790
    31  H    0.734707  -0.026060  -0.011545   0.010349  -0.004876  -0.002205
    32  C   -0.026060   4.598083   0.364101   0.364101   0.427972  -0.025311
    33  H   -0.011545   0.364101   0.734660  -0.046155  -0.026314   0.010403
    34  H    0.010349   0.364101  -0.046155   0.734660  -0.026314  -0.011605
    35  C   -0.004876   0.427972  -0.026314  -0.026314   4.587963   0.366509
    36  H   -0.002205  -0.025311   0.010403  -0.011605   0.366509   0.734676
    37  H    0.007790  -0.025311  -0.011605   0.010403   0.366509  -0.046441
    38  C    0.000262  -0.037815  -0.004815  -0.004815   0.442684  -0.028959
    39  H   -0.000031  -0.004304   0.007320  -0.002047  -0.023471   0.010000
    40  H    0.000034  -0.004304  -0.002047   0.007320  -0.023471  -0.011343
    41  C    0.000005   0.004456   0.000223   0.000223  -0.039186  -0.004872
    42  H    0.000003   0.000482   0.000050  -0.000041  -0.004422   0.007364
    43  H    0.000000  -0.000368   0.000006   0.000006   0.004653   0.000082
    44  H   -0.000007   0.000482  -0.000041   0.000050  -0.004422  -0.002060
              37         38         39         40         41         42
     1  C    0.000000   0.000000   0.000000   0.000000   0.000000   0.000000
     2  H    0.000000   0.000000   0.000000   0.000000   0.000000   0.000000
     3  H    0.000000   0.000000   0.000000   0.000000   0.000000   0.000000
     4  H    0.000000   0.000000   0.000000   0.000000   0.000000   0.000000
     5  C    0.000000   0.000000   0.000000   0.000000   0.000000   0.000000
     6  H    0.000000   0.000000   0.000000   0.000000   0.000000   0.000000
     7  H    0.000000   0.000000   0.000000   0.000000   0.000000   0.000000
     8  C    0.000000   0.000000   0.000000   0.000000   0.000000   0.000000
[...]
 0,0.00029095,0.00008990,-0.00005472,0.00103963,0.00018290,-0.00002939,
 -0.00001099,0.00001610,0.00029133,-0.00071078,0.00073368,0.00017425,-0
 .00078250,-0.01100447,-0.00048250,-0.00004007,0.00074765,-0.00139702,-
 0.00190969,0.00074682,0.00135684,-0.01116793,-0.29612262,0.00064667,-0
 .00045955,-0.00988209,0.00089334,0.01181652,0.32381994,-0.00000321,-0.
 00000156,-0.00000248,0.00000069,0.00000040,0.00000098,0.00000071,0.000
 00041,0.00000037,0.00000006,-0.00000427,-0.00000007,0.00000693,0.00000
 096,0.00000441,-0.00000016,-0.00000048,-0.00000071,-0.00000134,-0.0000
 0056,0.00000018,-0.00000903,-0.00000286,-0.00000690,0.00000042,-0.0000
 0030,0.00000015,0.00000048,-0.00000040,0.00000103,0.00001547,-0.000002
 19,0.00001000,-0.00000250,-0.00000098,0.00000048,-0.00000027,-0.000000
 71,-0.00000149,-0.00002232,-0.00000918,-0.00001635,0.00000140,-0.00000
 047,0.00000004,0.00000091,-0.00000064,0.00000231,0.00004165,-0.0000113
 4,0.00002745,-0.00000555,-0.00000203,0.00000139,-0.00000054,-0.0000014
 9,-0.00000373,-0.00007451,-0.00004663,-0.00004984,0.00000421,0.0000002
 1,-0.00000126,0.00000167,-0.00000058,0.00000598,0.00016357,-0.00007432
 ,0.00010724,-0.00001813,-0.00000505,0.00000716,0.00000005,-0.00000274,
 -0.00001244,-0.00033160,-0.00029247,-0.00022221,0.00001684,-0.00000139
 ,-0.00001411,0.00000136,0.00000462,0.00001874,0.00111753,-0.00083605,0
 .00034378,-0.00002653,0.00009397,0.00007501,0.00000366,0.00000264,-0.0
 0004720,-0.00218072,-0.00260477,-0.00119140,0.00047702,-0.00001328,-0.
 00020913,-0.00008679,0.00009539,0.00001624,0.00812480,-0.00918330,0.00
 640814,0.00062369,-0.00115747,0.00019747,0.00005794,-0.00003595,0.0000
 7723,-0.10909985,0.04847024,-0.02373933,-0.01558134,0.02642678,-0.0126
 4449,-0.00068414,0.00012296,0.00026582,0.53572826,-0.00000156,-0.00000
 076,-0.00000115,0.00000018,0.00000005,0.00000047,0.00000050,0.00000005
 ,0.00000003,0.00000016,-0.00000151,0.00000012,0.00000285,-0.00000015,0
 .00000209,-0.00000013,-0.00000010,-0.00000012,-0.00000015,-0.00000010,
 -0.00000009,-0.00000479,-0.00000187,-0.00000352,0.00000078,-0.00000026
 ,-0.00000013,0.00000011,-0.00000026,0.00000079,0.00000804,-0.00000291,
 0.00000591,-0.00000037,-0.00000002,-0.00000011,-0.00000022,-0.00000002
 ,-0.00000032,-0.00001408,-0.00000724,-0.00001036,0.00000199,-0.0000005
 5,-0.00000043,0.00000019,-0.00000055,0.00000203,0.00002743,-0.00001605
 ,0.00002018,-0.00000092,0.00000048,-0.00000002,-0.00000030,0.00000048,
 -0.00000087,-0.00006056,-0.00004416,-0.00004455,0.00000599,-0.00000011
 ,-0.00000194,-0.00000007,-0.00000011,0.00000629,0.00014253,-0.00009607
 ,0.00010484,-0.00000592,0.00000195,0.00000335,0.00000144,0.00000195,-0
 .00000665,-0.00034766,-0.00040840,-0.00025575,0.00001041,0.00001909,-0
 .00001391,-0.00001018,0.00001909,0.00001408,0.00119741,-0.00055685,0.0
 0088080,-0.00005023,0.00003737,0.00004223,0.00002536,0.00003737,-0.000
 06053,-0.00292196,-0.00345376,-0.00214947,0.00014405,-0.00003433,-0.00
 010873,-0.00006090,-0.00003433,0.00016988,0.01495816,-0.03011902,0.011
 00286,0.00105541,0.00177774,0.00029619,0.00059697,0.00177776,0.0009193
 7,0.04711758,-0.14987418,0.03465886,-0.00038396,-0.00051477,0.00000815
 ,-0.00010618,-0.00051535,-0.00036873,0.03740446,0.51054895,-0.00000248
 ,-0.00000115,-0.00000166,0.00000038,0.00000030,0.00000029,0.00000098,0
 .00000029,0.00000027,-0.00000006,-0.00000314,0.00000010,0.00000441,0.0
 0000071,0.00000418,-0.00000019,-0.00000044,-0.00000118,-0.00000034,-0.
 00000032,0.,-0.00000690,-0.00000210,-0.00000473,0.00000105,-0.00000032
 ,0.00000011,0.00000013,-0.00000019,0.00000005,0.00001000,-0.00000161,0
 .00000923,-0.00000080,-0.00000044,0.00000004,-0.00000022,-0.00000080,-
 0.00000219,-0.00001635,-0.00000675,-0.00001212,0.00000216,-0.00000052,
 0.00000018,0.00000019,-0.00000029,0.00000067,0.00002745,-0.00000834,0.
 00002453,-0.00000217,-0.00000093,0.00000019,-0.00000017,-0.00000166,-0
 .00000482,-0.00004984,-0.00003431,-0.00004343,0.00000519,-0.00000068,0
 .00000020,-0.00000047,0.00000040,0.00000274,0.00010724,-0.00005467,0.0
 0009668,-0.00000677,-0.00000130,0.00000170,0.00000149,-0.00000444,-0.0
 0001648,-0.00022221,-0.00021515,-0.00019299,0.00001392,0.00000527,-0.0
 0000008,-0.00000928,-0.00000290,0.00001539,0.00034381,-0.00061502,0.00
 090307,-0.00003778,-0.00002654,-0.00000502,0.00006560,0.00009761,-0.00
 003521,-0.00119140,-0.00191614,-0.00143760,-0.00015962,0.00010406,-0.0
 0002662,-0.00003327,-0.00004367,0.00053719,0.00640854,-0.00675580,0.00
 412730,-0.00009921,0.00032339,-0.00002773,0.00037396,-0.00120123,0.000
 53800,-0.02373935,0.03565390,-0.09428932,0.00491233,-0.00811386,0.0031
 7684,-0.01729145,0.02764403,-0.01171978,-0.01409117,0.02751429,0.54451
 978,0.00000071,0.00000051,0.00000097,-0.00000039,-0.00000022,-0.000000
 48,0.00000024,-0.00000026,-0.00000030,0.00000006,0.00000168,0.00000018
 ,-0.00000269,-0.00000069,-0.00000110,-0.00000009,0.00000017,0.00000011
 ,0.00000120,0.00000035,-0.00000024,0.00000186,0.00000078,0.00000249,0.
 00000091,-0.00000010,-0.00000033,-0.00000031,0.00000013,-0.00000046,-0
 .00000500,-0.00000027,-0.00000217,0.00000204,0.00000078,-0.00000046,-0
 .00000013,0.00000022,0.00000025,0.00000384,0.00000192,0.00000469,0.000
 00159,-0.00000036,-0.00000056,-0.00000057,0.00000021,-0.00000083,-0.00
 001047,-0.00000067,-0.00000494,0.00000403,0.00000176,-0.00000086,-0.00
 000018,0.00000043,0.00000060,0.00000878,0.00000528,0.00001037,0.000003
 28,-0.00000119,-0.00000115,-0.00000124,0.00000040,-0.00000178,-0.00002
 939,0.00000139,-0.00001354,0.00000892,0.00000429,-0.00000212,-0.000000
 40,0.00000090,0.00000136,0.00002644,0.00000026,0.00002587,0.00000652,-
 0.00000542,-0.00000368,-0.00000460,0.00000112,-0.00000453,-0.00003067,
 0.00003199,-0.00005559,0.00002968,0.00004528,-0.00000389,0.00000019,0.
 00000469,0.00000765,0.00042478,0.00007673,-0.00008533,0.00015083,-0.00
 025972,0.00002592,-0.00003920,-0.00000077,-0.00001125,0.00053491,-0.00
 130891,0.00000594,0.00070314,0.00083908,0.00009297,0.00003568,0.000028
 44,-0.00000240,-0.01617369,-0.00049180,0.00506494,-0.00040306,0.003107
 64,-0.00193788,0.00052872,-0.00022402,-0.00049608,-0.28047596,-0.00300
 556,0.07601219,0.30609644,0.00000041,0.00000005,0.00000029,-0.00000004
 ,-0.00000001,-0.00000022,-0.00000026,0.,0.00000003,0.,0.00000044,0.,-0
 .00000039,-0.00000010,-0.00000036,0.00000006,0.00000003,-0.00000008,-0
 .00000015,-0.00000001,0.00000009,0.00000094,0.,0.00000061,-0.00000041,
 0.00000015,0.00000011,0.00000001,0.00000010,-0.00000028,-0.00000065,0.
 00000028,-0.00000068,-0.00000034,-0.00000015,0.00000016,0.00000009,-0.
 00000002,-0.00000013,0.00000177,-0.00000002,0.00000113,-0.00000089,0.0
 0000039,0.00000022,0.00000006,0.00000020,-0.00000049,-0.00000095,0.000
 00104,-0.00000131,-0.00000094,-0.00000056,0.00000039,0.00000020,-0.000
 00013,-0.00000023,0.00000452,0.00000134,0.00000218,-0.00000232,0.00000
 114,0.00000068,0.00000026,0.00000048,-0.00000103,-0.00000269,0.0000026
 1,-0.00000517,-0.00000256,-0.00000241,0.00000108,0.00000039,-0.0000005
 2,-0.00000043,0.00000686,0.00002255,0.00001266,-0.00000862,0.00001064,
 0.00000186,0.00000187,0.00000134,-0.00000258,-0.00010412,0.00003214,0.
 00000954,-0.00004012,-0.00005480,-0.00000168,0.00000048,-0.00000423,-0
 .00000357,0.00004397,-0.00009452,0.00013761,-0.00028075,0.00005936,0.0
 0002001,0.00001125,0.00001752,-0.00001537,0.00129126,0.00195522,-0.000
 63761,-0.00069924,-0.00030196,0.00021652,-0.00007712,-0.00006544,-0.00
 001809,0.02555358,-0.00032926,-0.00888371,0.00292949,-0.00401573,0.002
 07557,-0.00075152,0.00100478,-0.00014251,-0.00457834,-0.04572775,0.001
 60493,0.00109788,0.04850178,0.00000037,0.00000003,0.00000027,-0.000000
 01,0.00000003,-0.00000023,-0.00000030,0.00000003,0.00000005,0.,0.00000
 023,-0.00000003,-0.00000015,-0.00000001,-0.00000025,0.00000010,0.,-0.0
 0000019,-0.00000026,-0.00000001,0.00000018,0.00000078,-0.00000002,0.00
 000058,-0.00000047,0.00000011,0.00000008,-0.00000002,0.00000010,-0.000
 00037,-0.00000027,0.00000026,-0.00000050,-0.00000039,-0.00000010,0.000
 00032,0.00000018,-0.00000006,-0.00000029,0.00000124,-0.00000016,0.0000
 0108,-0.00000080,0.00000023,0.00000005,-0.00000009,0.00000021,-0.00000
 065,0.,0.00000055,-0.00000081,-0.00000069,-0.00000022,0.00000074,0.000
 00040,-0.00000015,-0.00000052,0.00000130,-0.00000064,0.00000207,-0.000
 00158,0.00000064,-0.00000022,-0.00000035,0.00000054,-0.00000133,0.0000
 0490,-0.00000125,0.00000009,-0.00000172,-0.00000046,0.00000254,0.00000
 129,-0.00000033,-0.00000120,-0.00000962,-0.00000710,0.00000319,-0.0000
 0384,0.00000176,-0.00000270,-0.00000107,0.00000273,-0.00000441,0.00008
 082,-0.00002815,-0.00001239,-0.00000225,0.00000975,0.00001682,0.000004
 42,-0.00000087,-0.00000195,-0.00022168,-0.00008578,-0.00002538,0.00003
 609,0.00002091,-0.00005001,-0.00002146,0.00001269,-0.00003659,0.000157
 29,-0.00037458,0.00000864,0.00018938,-0.00013742,0.00017718,0.00013224
 ,0.00004057,-0.00000774,-0.01299971,-0.00012823,0.00346442,-0.00166166
 ,0.00246199,0.00016774,-0.00024378,-0.00075364,0.00065526,0.07686042,0
 .00105183,-0.07044352,-0.08241560,-0.00333222,0.07250762,0.00000006,0.
 00000016,-0.00000006,0.00000003,0.,0.00000019,0.00000005,0.,0.,-0.0000
 0008,-0.00000011,-0.00000008,-0.00000031,0.00000024,-0.00000031,0.,0.0
 0000001,0.00000023,0.00000006,0.,-0.00000007,0.00000063,0.00000053,0.0
 0000021,0.,-0.00000004,-0.00000001,0.,-0.00000006,0.00000021,-0.000001
 49,0.00000053,-0.00000116,0.00000021,0.00000007,-0.00000015,-0.0000000
 1,0.00000012,0.00000045,0.00000273,0.00000215,0.00000149,-0.00000009,-
 0.00000011,0.00000003,0.,-0.00000014,0.00000022,-0.00000659,0.00000297
 ,-0.00000470,0.00000083,0.00000025,-0.00000048,-0.00000007,0.00000025,
 0.00000113,0.00001302,0.00001195,0.00000849,-0.00000034,-0.00000043,0.
 00000046,0.00000018,-0.00000044,0.00000002,-0.00003791,0.00002305,-0.0
 0002345,0.00000269,-0.00000008,-0.00000225,-0.00000064,0.00000027,0.00
 000331,0.00007412,0.00007694,0.00005222,-0.00000549,-0.00000003,0.0000
 0438,0.00000237,-0.00000137,-0.00000314,-0.00023606,0.00021592,-0.0001
 7118,0.00000881,-0.00000786,-0.00001660,-0.00000630,-0.00001244,0.0000
 1185,0.00079208,0.00088072,0.00013985,0.00001338,-0.00009933,0.0000730
 6,0.00001578,-0.00001004,-0.00002720,-0.00178051,0.00201027,-0.0014932
 8,0.00038831,0.00029035,-0.00018638,-0.00016189,-0.00010890,-0.0000345
 1,0.00702969,0.01590007,0.00650022,0.00078132,-0.00040497,0.00052494,0
 .00048269,-0.00070644,0.00024171,-0.09217424,-0.09583540,-0.03493411,-
 0.01186561,-0.02521159,-0.01018065,0.09720079,-0.00000427,-0.00000151,
 -0.00000314,0.00000072,0.00000044,0.00000154,0.00000168,0.00000044,0.0
 0000023,-0.00000011,-0.00000546,-0.00000008,0.00000713,0.00000161,0.00
 000524,-0.00000032,-0.00000059,-0.00000052,-0.00000059,-0.00000059,-0.
 00000015,-0.00001069,-0.00000236,-0.00000786,0.00000162,-0.00000062,-0
 .00000016,0.00000033,-0.00000062,0.00000159,0.00001452,-0.00000147,0.0
 0001068,-0.00000126,-0.00000073,-0.00000006,-0.00000043,-0.00000073,-0
 .00000118,-0.00002226,-0.00000660,-0.00001637,0.00000305,-0.00000106,-
 0.00000033,0.00000059,-0.00000106,0.00000301,0.00003534,-0.00000688,0.
 00002599,-0.00000296,-0.00000133,0.00000005,-0.00000083,-0.00000133,-0
 .00000284,-0.00005969,-0.00002602,-0.00004391,0.00000692,-0.00000174,-
 0.00000097,0.00000114,-0.00000174,0.00000690,0.00011433,-0.00003702,0.
 00008410,-0.00000862,-0.00000227,0.00000124,-0.00000139,-0.00000227,-0
 .00000860,-0.00023426,-0.00014471,-0.00017233,0.00001827,-0.00000106,-
 0.00000657,-0.00000083,-0.00000106,0.00001940,0.00057315,-0.00029204,0
 .00042161,-0.00002998,0.00001027,0.00001165,0.00000219,0.00001027,-0.0
 0003209,-0.00138315,-0.00083133,-0.00101748,0.00011353,-0.00002153,-0.
 00004685,-0.00001092,-0.00002153,0.00012233,0.00463276,-0.00264731,0.0
 0340785,-0.00001726,0.00033016,0.00010976,0.00009964,0.00033015,-0.000
 04916,-0.01204654,-0.02023756,-0.00886184,0.00037239,0.00077781,-0.000
 49679,-0.00036339,0.00077779,0.00050343,-0.09392006,-0.23708324,-0.069
 09151,0.00019306,0.00012210,0.00034201,0.10154316,0.25890157,-0.000000
 06,0.00000012,0.00000010,0.,0.,0.,0.00000018,0.,-0.00000003,-0.0000000
 8,-0.00000008,-0.00000003,-0.00000031,0.00000017,-0.00000012,-0.000000
 05,0.,0.,0.00000021,0.00000001,-0.00000006,0.00000021,0.00000039,0.000
 00050,0.00000022,-0.00000005,-0.00000006,-0.00000001,-0.00000002,-0.00
 000007,-0.00000116,0.00000039,-0.00000077,0.00000038,0.00000010,-0.000
 00011,-0.00000008,0.00000004,0.00000012,0.00000149,0.00000158,0.000001
 81,0.00000025,-0.00000011,-0.00000009,0.,-0.00000007,-0.00000017,-0.00
 000470,0.00000219,-0.00000365,0.00000085,0.00000019,-0.00000027,-0.000
 00020,0.00000018,0.00000063,0.00000849,0.00000879,0.00000772,0.0000001
 8,-0.00000032,0.00000003,0.00000030,-0.00000032,-0.00000049,-0.0000234
 5,0.00001695,-0.00002327,0.00000227,0.00000031,-0.00000097,-0.00000121
 ,-0.00000017,0.00000236,0.00005222,0.00005660,0.00004154,-0.00000069,-
 0.00000143,0.00000198,0.00000193,0.00000040,-0.00000588,-0.00017117,0.
 00015883,-0.00012927,0.00000713,-0.00001058,-0.00000481,-0.00001189,-0
 .00000435,0.00001029,0.00013982,0.00064784,0.00070484,-0.00002645,0.00
 002046,0.00000148,0.00007231,-0.00010092,-0.00000092,-0.00149323,0.001
 47872,-0.00084888,-0.00020611,-0.00020463,-0.00009299,-0.00001478,0.00
 033811,0.00045721,0.00649976,0.01169592,0.00297499,0.00014858,-0.00061
 369,0.00024355,0.00061808,-0.00020385,0.00054220,-0.03493408,-0.070500
 45,-0.07038521,0.00408552,0.00937187,0.00247151,0.03896452,0.07469949,
 0.07289777,0.00000069,0.00000018,0.00000038,-0.00000010,-0.00000005,-0
 .00000019,-0.00000039,-0.00000004,-0.00000001,0.00000003,0.00000072,0.
 ,-0.00000082,-0.00000022,-0.00000073,0.00000013,0.00000009,0.00000008,
 -0.00000012,0.00000005,0.00000011,0.00000162,0.00000021,0.00000085,-0.
 00000050,0.00000014,0.00000004,-0.00000008,0.00000008,-0.00000016,-0.0
 0000159,0.00000017,-0.00000133,-0.00000015,0.,0.00000018,0.00000023,0.
 00000013,0.00000017,0.00000301,0.00000042,0.00000150,-0.00000091,0.000
 00027,0.00000002,-0.00000020,0.00000012,-0.00000024,-0.00000308,0.0000
 0033,-0.00000232,-0.00000021,-0.00000001,0.00000041,0.00000059,0.00000
 031,0.00000038,0.00000599,0.00000097,0.00000217,-0.00000193,0.00000063
 ,-0.00000013,-0.00000069,0.00000025,-0.00000034,-0.00000498,-0.0000007
 8,-0.00000271,-0.00000038,-0.00000005,0.00000128,0.00000202,0.00000084
 ,0.00000043,0.00000987,-0.00000670,-0.00000445,-0.00000602,0.00000294,
 -0.00000063,-0.00000402,0.00000006,-0.00000056,-0.00000684,-0.00001735
 ,0.00007338,0.00000167,0.00000057,0.00000396,0.00001622,0.00002279,0.0
 0000195,-0.00007274,-0.00005904,-0.00006650,-0.00004612,0.00001188,-0.
 00001930,-0.00001457,-0.00005738,0.00008768,0.00010171,-0.00074737,0.0
 0029238,0.00003301,0.00004720,0.00013308,0.00030407,0.00011866,0.00031
 387,-0.00053215,-0.00026847,-0.01787882,0.00043375,-0.00078617,-0.0002
 1416,-0.00090614,0.00327572,-0.00150474,-0.04561060,0.00010911,0.00360
 461,0.00046884,0.00081867,0.03029720,-0.00053220,0.00038427,-0.0137151
 9,0.04636404,0.00000039,0.00000005,0.00000030,-0.00000005,0.,-0.000000
 26,-0.00000022,-0.00000001,0.00000003,0.,0.00000044,0.,-0.00000046,-0.
 00000010,-0.00000027,0.00000004,-0.00000001,-0.00000017,-0.00000006,0.
 00000003,0.00000008,0.00000087,0.,0.00000072,-0.00000026,0.00000010,0.
 00000010,-0.00000002,0.00000015,-0.00000043,-0.00000084,0.00000028,-0.
 00000042,-0.00000009,-0.00000002,0.00000012,0.00000005,-0.00000015,-0.
 00000037,0.00000160,-0.00000002,0.00000135,-0.00000045,0.00000020,0.00
 000020,-0.00000006,0.00000039,-0.00000092,-0.00000153,0.00000104,-0.00
 000052,-0.00000016,-0.00000013,0.00000026,0.00000009,-0.00000056,-0.00
 000101,0.00000343,0.00000134,0.00000366,-0.00000091,0.00000048,0.00000
 056,-0.00000004,0.00000114,-0.00000242,-0.00000574,0.00000261,-0.00000
 102,-0.00000030,-0.00000052,0.00000050,0.00000027,-0.00000241,-0.00000
 277,0.00001412,0.00002255,0.00000278,-0.00000191,0.00000134,0.00000255
 ,-0.00000079,0.00001064,-0.00000878,-0.00002189,0.00003214,-0.00010224
 ,-0.00000327,-0.00000423,0.00000153,-0.00001355,-0.00005480,-0.0000378
 1,0.00014446,-0.00009452,0.00000099,-0.00001133,0.00001752,0.00001532,
 -0.00006449,0.00005937,-0.00027398,-0.00022423,0.00195520,0.00142258,-
 0.00004023,-0.00006544,-0.00006823,-0.00000150,-0.00030196,-0.00073200
 ,-0.00087197,-0.00032985,0.02703967,-0.00035981,0.00100478,-0.00067500
 ,0.00285380,-0.00401573,0.00217847,0.00016884,-0.04572757,-0.00484296,
 -0.00014742,-0.00113809,0.00090420,0.00143980,0.00012270,-0.02685860,-
 0.00285417,0.04850161,0.00000098,0.00000047,0.00000029,-0.00000019,-0.
 00000026,0.00000039,-0.00000048,-0.00000022,-0.00000023,0.00000019,0.0
 0000154,0.,-0.00000169,-0.00000065,-0.00000212,0.00000009,0.00000034,0
 .00000125,0.00000012,0.00000016,-0.00000016,0.00000257,0.00000075,0.00
 000081,-0.00000040,0.00000010,-0.00000018,-0.00000002,-0.00000013,0.00
 000106,-0.00000323,-0.00000034,-0.00000390,0.00000026,0.00000022,-0.00
 000026,0.00000010,0.00000078,0.00000213,0.00000495,0.00000188,0.000001
 91,-0.00000073,0.00000014,-0.00000032,0.,-0.00000041,0.00000184,-0.000
 00724,-0.00000080,-0.00000821,0.00000061,0.00000045,-0.00000050,0.0000
 0021,0.00000175,0.00000418,0.00001124,0.00000523,0.00000487,-0.0000015
 7,0.00000022,-0.00000064,0.00000008,-0.00000133,0.00000374,-0.00002116
 ,0.00000170,-0.00002432,0.00000135,0.00000096,-0.00000122,0.00000004,0
 .00000424,0.00000945,0.00003104,0.00000236,0.00001976,-0.00000408,0.00
 000026,-0.00000299,-0.00000039,-0.00000570,0.00000784,-0.00006302,0.00
 003892,-0.00003622,0.00000719,0.00000474,-0.00000343,0.00000031,0.0000
 4032,0.00003028,0.00006985,0.00009878,0.00047214,-0.00000910,-0.000004
 51,-0.00002967,0.00007751,-0.00025417,0.00011539,0.00014107,-0.0011379
 7,0.00044186,-0.00000157,0.00001507,-0.00000508,0.00021743,0.00084192,
 0.00057626,0.00018625,-0.00043106,-0.01217654,-0.00046646,0.00001054,0
 .00075024,-0.00178097,0.00223348,0.00067082,0.00275636,-0.00317684,-0.
 30530905,-0.00029449,-0.00040981,-0.00888917,0.00055059,0.00008267,-0.
 00886250,-0.00140361,0.00203420,0.33224020\\-0.00000017,-0.00000123,-0
 .00000011,0.00000008,0.00000011,-0.00000017,-0.00000014,0.00000012,0.0
 0000012,0.00000026,-0.00000036,0.00000018,0.00000051,-0.00000080,0.000
 00038,0.00000011,0.,0.00000030,0.00000033,-0.00000001,0.00000002,-0.00
 000082,-0.00000112,-0.00000062,-0.00000028,0.00000004,0.00000013,0.000
 00003,0.00000005,-0.00000031,0.00000193,-0.00000208,0.00000143,0.00000
 046,0.00000006,-0.00000006,0.00000007,0.00000005,0.00000046,-0.0000028
 7,-0.00000384,-0.00000211,-0.00000058,0.00000005,0.00000008,-0.0000000
 9,0.00000005,-0.00000057,0.00000567,-0.00000604,0.00000416,0.00000098,
 0.00000018,-0.00000009,0.00000021,0.00000018,0.00000097,-0.00000828,-0
 .00001113,-0.00000607,-0.00000174,0.00000034,0.00000007,-0.00000045,0.
 00000034,-0.00000169,0.00001208,-0.00001501,0.00000888,0.00000273,-0.0
 0000036,-0.00000052,0.00000031,-0.00000035,0.00000277,-0.00001141,-0.0
 0002033,-0.00000838,-0.00000689,0.00000142,0.00000183,-0.00000030,0.00
 000142,-0.00000713,0.00001506,0.00001852,0.00001107,0.00000718,-0.0000
 0118,-0.00000370,-0.00000140,-0.00000118,0.00000796,0.00000941,-0.0000
 3720,0.00000691,-0.00000265,-0.00001003,0.00000963,0.00000840,-0.00001
 003,-0.00000539,0.00005273,0.00011204,0.00003880,-0.00000642,0.0000065
 5,-0.00000556,-0.00000721,0.00000655,-0.00000449,-0.00007855,-0.000024
 13,-0.00005780,-0.00000534,-0.00000582,-0.00000044,-0.00000201,-0.0000
 0582,-0.00000495,0.00012021,-0.00012577,0.00008842,-0.00013039,0.00000
 574,0.00002899,0.00004038,0.00012426,0.00002971,-0.00001115,0.00000575
 ,-0.00013311\\\@


 THERE IS NO SCIENCE WITHOUT FANCY, NOR ART WITHOUT FACTS.
     -- VLADIMIR NABAKOV
 Job cpu time:       0 days  2 hours 38 minutes  0.8 seconds.
 Elapsed time:       0 days  0 hours 19 minutes 46.8 seconds.
 File lengths (MBytes):  RWF=    526 Int=      0 D2E=      0 Chk=     12 Scr=      1
 Normal termination of Gaussian 16 at Sat Feb 15 18:47:03 2020.
