Start abic program at 12:52:24 10/16 2020
 Author:  Qingchun Wang @ NJU
 E-Mail:  qingchun720@foxmail.com
 input  file: H12_2_sto-6g_bccc.py
 output file: H12_2_sto-6g_bccc3b.out


#INFO: **** input file is /home/qingchun/DiQC/projects/python/bccc/examples/H12/H12_2_sto-6g_bccc.py ****
#!/usr/bin/env python                              
# -*- coding: utf-8 -*-                            
#                                                  
#         Author:  Wingchun Wang @ NJU             
#         E-Mail:  qingchun720@foxmail.com         
#                                                  


import os, sys, time
fout=open('H12_2_sto-6g_bccc3b.out', 'w')
stdout=sys.stdout; stderr=sys.stderr; sys.stdout=fout; sys.stderr=fout
print(time.strftime('Start abic program at %H:%M:%S %m/%d %Y', time.localtime()))
print(' Author:  Qingchun Wang @ NJU')
print(' E-Mail:  qingchun720@foxmail.com')
print(' input  file: H12_2_sto-6g_bccc.py')
print(' output file: H12_2_sto-6g_bccc3b.out')
print('\n')


from pyscf import gto
mol = gto.M(
    atom=
        '''
 H                  0.0    0.0   -12.0
 H                  0.0    0.0   -10.0
 H                  0.0    0.0   -8.0
 H                  0.0    0.0   -6.0
 H                  0.0    0.0   -4.0
 H                  0.0    0.0   -2.0
 H                  0.0    0.0   0.0
 H                  0.0    0.0   2.0
 H                  0.0    0.0   4.0
 H                  0.0    0.0   6.0
 H                  0.0    0.0   8.0
 H                  0.0    0.0   10.0
        ''',
    charge=0, spin=0,
    output='H12_2_sto-6g_bccc3b.out',
    cart=True,
    verbose=4,
    basis='sto-6g', 
           )
import gvb
mf=gvb.RGVB(mol)
mf.pop='meta_lowdin'
mf.weight='trans_dipo'
mf.kernel()
print('\n')


import bccc
cc = bccc.BCCC(mf, nt=2)
cc.kernel()
print('\n')


print(time.strftime('End abic program at %H:%M:%S %m/%d %Y', time.localtime()))
fout.close()
sys.stdout=stdout; sys.stderr=stderr
#INFO: ******************** input file end ********************


System: uname_result(system='Linux', node='cu34', release='3.10.0-693.el7.x86_64', version='#1 SMP Tue Aug 22 21:09:27 UTC 2017', machine='x86_64', processor='x86_64')  Threads 24
Python 3.6.10 |Anaconda, Inc.| (default, Jan  7 2020, 21:14:29) 
[GCC 7.3.0]
numpy 1.18.1  scipy 1.4.1
Date: Fri Oct 16 10:52:25 2020
PySCF version 1.7.3
PySCF path  /home/qingchun/software/pyscf-1.7.3/pyscf

[ENV] PYSCF_MAX_MEMORY 32000
[ENV] PYSCF /home/qingchun/software/pyscf-1.7.3
[ENV] PYSCF_TMPDIR /scratch/qingchun/pyscf
[CONFIG] conf_file None
[INPUT] verbose = 4
[INPUT] num. atoms = 12
[INPUT] num. electrons = 12
[INPUT] charge = 0
[INPUT] spin (= nelec alpha-beta = 2S) = 0
[INPUT] symmetry False subgroup None
[INPUT] Mole.unit = angstrom
[INPUT] Cartesian GTO integrals (6d 10f)
[INPUT]  1 H      0.000000000000   0.000000000000 -12.000000000000 AA    0.000000000000   0.000000000000 -22.676713494781 Bohr
[INPUT]  2 H      0.000000000000   0.000000000000 -10.000000000000 AA    0.000000000000   0.000000000000 -18.897261245651 Bohr
[INPUT]  3 H      0.000000000000   0.000000000000  -8.000000000000 AA    0.000000000000   0.000000000000 -15.117808996520 Bohr
[INPUT]  4 H      0.000000000000   0.000000000000  -6.000000000000 AA    0.000000000000   0.000000000000 -11.338356747390 Bohr
[INPUT]  5 H      0.000000000000   0.000000000000  -4.000000000000 AA    0.000000000000   0.000000000000  -7.558904498260 Bohr
[INPUT]  6 H      0.000000000000   0.000000000000  -2.000000000000 AA    0.000000000000   0.000000000000  -3.779452249130 Bohr
[INPUT]  7 H      0.000000000000   0.000000000000   0.000000000000 AA    0.000000000000   0.000000000000   0.000000000000 Bohr
[INPUT]  8 H      0.000000000000   0.000000000000   2.000000000000 AA    0.000000000000   0.000000000000   3.779452249130 Bohr
[INPUT]  9 H      0.000000000000   0.000000000000   4.000000000000 AA    0.000000000000   0.000000000000   7.558904498260 Bohr
[INPUT] 10 H      0.000000000000   0.000000000000   6.000000000000 AA    0.000000000000   0.000000000000  11.338356747390 Bohr
[INPUT] 11 H      0.000000000000   0.000000000000   8.000000000000 AA    0.000000000000   0.000000000000  15.117808996520 Bohr
[INPUT] 12 H      0.000000000000   0.000000000000  10.000000000000 AA    0.000000000000   0.000000000000  18.897261245651 Bohr

nuclear repulsion = 6.67782696403613
number of shells = 12
number of NR pGTOs = 72
number of NR cGTOs = 12
basis = sto-6g
ecp = {}
CPU time:         0.49
in_pre = H12_2
make H12_2_sto-6g_uhf.fchk file
dump H12_2_sto-6g_uhf.gjf
g16 H12_2_sto-6g_uhf.gjf
formchk H12_2_sto-6g_uhf.chk H12_2_sto-6g_uhf.fchk
rm -r H12_2_sto-6g_uhf.chk
mv fort.7 H12_2_sto-6g.fort.7
bas=
H    S
    0.355232212E+02  0.916359628E-02
    0.651314373E+01  0.493614929E-01
    0.182214290E+01  0.168538305E+00
    0.625955266E+00  0.370562800E+00
    0.243076747E+00  0.416491530E+00
    0.100112428E+00  0.130334084E+00


in_pre = H12_2
bas=
H    S
    0.355232212E+02  0.916359628E-02
    0.651314373E+01  0.493614929E-01
    0.182214290E+01  0.168538305E+00
    0.625955266E+00  0.370562800E+00
    0.243076747E+00  0.416491530E+00
    0.100112428E+00  0.130334084E+00




******** <class 'pyscf.scf.uhf.UHF'> ********
method = UHF
initial guess = minao
damping factor = 0
level_shift factor = 0
DIIS = <class 'pyscf.scf.diis.CDIIS'>
diis_start_cycle = 1
diis_space = 8
SCF conv_tol = 1e-09
SCF conv_tol_grad = None
SCF max_cycles = 1
direct_scf = True
direct_scf_tol = 1e-13
chkfile to save SCF result = /scratch/qingchun/pyscf/tmpp71cbotk
max_memory 32000 MB (current use 65 MB)
number electrons alpha = 6  beta = 6
Set gradient conv threshold to 3.16228e-05
init E= -3.40631511320117
  alpha nocc = 6  HOMO = -0.132012448549831  LUMO = -0.091741736871252
  beta  nocc = 6  HOMO = -0.126678098650271  LUMO = -0.0902970045500701
cycle= 1 E= -4.77190214317253  delta_E= -1.37  |g|= 0.0545  |ddm|= 2.09
SCF not converged.
SCF energy = -4.77190214317253 after 1 cycles  <S^2> = 6.0779472e-05  2S+1 = 1.0001216


******** <class 'pyscf.scf.uhf.UHF'> ********
method = UHF
initial guess = minao
damping factor = 0
level_shift factor = 0
DIIS = <class 'pyscf.scf.diis.CDIIS'>
diis_start_cycle = 1
diis_space = 8
SCF conv_tol = 1e-09
SCF conv_tol_grad = None
SCF max_cycles = 1
direct_scf = True
direct_scf_tol = 1e-13
chkfile to save SCF result = /scratch/qingchun/pyscf/tmpp71cbotk
max_memory 32000 MB (current use 86 MB)
number electrons alpha = 6  beta = 6
Set gradient conv threshold to 3.16228e-05
init E= -5.69624402450996
  alpha nocc = 6  HOMO = -0.460639402760756  LUMO = 0.287650309403968
  beta  nocc = 6  HOMO = -0.460639402763339  LUMO = 0.287650309403171
cycle= 1 E= -5.69624402317163  delta_E= 1.34e-09  |g|= 1.56e-09  |ddm|= 9.44e-09
SCF not converged.
SCF energy = -5.69624402317163 after 1 cycles  <S^2> = 5.4275085  2S+1 = 4.7655046




******** <class 'pyscf.scf.uhf.UHF'> ********
method = UHF
initial guess = minao
damping factor = 0
level_shift factor = 0
DIIS = <class 'pyscf.scf.diis.CDIIS'>
diis_start_cycle = 1
diis_space = 8
SCF conv_tol = 1e-09
SCF conv_tol_grad = None
SCF max_cycles = 1
direct_scf = True
direct_scf_tol = 1e-13
chkfile to save SCF result = /scratch/qingchun/pyscf/tmpp71cbotk
max_memory 32000 MB (current use 87 MB)
number electrons alpha = 6  beta = 6
******** <class 'pyscf.scf.uhf.UHF'> Newton solver flags ********
SCF tol = 1e-09
conv_tol_grad = None
max. SCF cycles = 50
direct_scf = True
direct_scf_tol = 1e-13
chkfile to save SCF result = /scratch/qingchun/pyscf/tmpp71cbotk
max_cycle_inner = 12
max_stepsize = 0.05
ah_start_tol = 1e+09
ah_level_shift = 0
ah_conv_tol = 1e-12
ah_lindep = 1e-14
ah_start_cycle = 1
ah_max_cycle = 40
ah_grad_trust_region = 2.5
kf_interval = 4
kf_trust_region = 5
canonicalization = True
max_memory 32000 MB (current use 87 MB)
Set conv_tol_grad to 3.16228e-05
  alpha nocc = 6  HOMO = -0.460639402707236  LUMO = 0.287650308780271
  beta  nocc = 6  HOMO = -0.460639402707516  LUMO = 0.287650308780384
Initial guess E= -5.69624402317163  |g|= 1.56274e-09
macro= 0  E= -5.69624402317164  delta_E= -7.10543e-15  |g|= 1.56274e-09  1 KF 2 JK
Canonicalize SCF orbitals
macro X = 1  E=-5.69624402317164  |g|= 1.56274e-09  total 2 KF 4 JK
converged SCF energy = -5.69624402317164  <S^2> = 5.4275085  2S+1 = 4.7655046
entry stabilize()
UHF/UKS wavefunction is stable in the internal stability analysis
entry uno()
uno svd(vir) s =
[0.43441722 0.40115091 0.34528771 0.2672825  0.1696907  0.05824654]
uno svd(occ) s =
[0.43441722 0.40115091 0.34528771 0.2672825  0.1696907  0.05824654]
fchk_uhf2rhf H12_2_sto-6g_uhf.fchk
mv H12_2_sto-6g_uhf_r.fchk H12_2_sto-6g_rhf.fchk
nbs= 12    nobt= 12
nactocc= 6    nactvir= 6
np= 6    npa= 6
Pipek-Mezey pop = meta_lowdin
localize   1 ->   6
Up to 28 cycle, the global locality has reached 0.6268503134368877
localize   7 ->  12
Up to 19 cycle, the global locality has reached 0.6268516284441064
Match |1->6| <-> |7->12|, weight=trans_dipo
   1: (  1, 11)   3.412049267263814
   2: (  2, 12)   3.412045892064861
   3: (  3,  8)   3.1836578695198843
   4: (  4, 10)   4.18034872998658
   5: (  5,  7)   4.1803506406776645
   6: (  6,  9)   3.18366123094823
sum = 21.552113630461037
cp -f H12_2_sto-6g_rhf.fchk H12_2_sto-6g_gvb_init.fchk
dump MO to H12_2_sto-6g_gvb_init.fchk





********* Entry GVB Calculation ********
dump H12_2_sto-6g_gvb_init.inp
fchk2vec H12_2_sto-6g_gvb_init.fchk H12_2_sto-6g_gvb_init.inp -gvb 6
rungms H12_2_sto-6g_gvb_init.inp 01 24 &> H12_2_sto-6g_gvb_init.txt 
cp H12_2_sto-6g_gvb_init.fchk H12_2_sto-6g_gvb_init.dat.fchk
dat2fchk H12_2_sto-6g_gvb_init.dat H12_2_sto-6g_gvb_init.dat.fchk
cp H12_2_sto-6g_gvb_init.fchk H12_2_sto-6g_gvb.fchk
dat2fchk H12_2_sto-6g_gvb_init.dat H12_2_sto-6g_gvb.fchk -gvb 6
GVB CI:
 1(0.852815) <-> 12(-0.522213)
 2(0.852815) <-> 11(-0.522213)
 3(0.852796) <-> 10(-0.522244)
 4(0.848419) <->  9(-0.529325)
 5(0.848419) <->  8(-0.529325)
 6(0.852796) <->  7(-0.522244)
e_nuc = 6.677826964
E(GVB) = -5.7102970064   (.dat)
E(GVB) = -5.7102969929   (Ref.)
E(GVB) = -5.7102970077
E(GVB-BCPT2) = -5.7286052222




initialize t
t0 from GVB-LBCCC
corr(GVB-BCLCC3b) = -0.1708305543470987
E(GVB-BCLCC3b) = -5.881127562053081
calculate GVB-BCCC energy
threshold,max_cycle,dEshift = 1e-05,100,0.015
Ecorr = -0.17083055478284795
    it          Ecorr              dE               dt               time/s
      1      -0.14091489       0.0299156613    58.1740824576     0:02:15.55
      2      -0.10518635       0.0357285480    39.6906704861     0:02:23.21
      3      -0.08582040       0.0193659496    23.6597565869     0:02:19.69
      4      -0.07240766       0.0134127392    14.7203089573     0:02:37.04
      5      -0.06370431       0.0087033443     9.7441326704     0:02:24.84
      6      -0.04070996       0.0229943504     6.7463648336     0:02:46.91
      7      -0.03747010       0.0032398600     0.8019106042     0:02:30.90
      8      -0.03803485      -0.0005647528     0.2410990346     0:02:31.49
      9      -0.03797149       0.0000633627     0.1422070051     0:02:23.52
     10      -0.03819537      -0.0002238828     0.0984966284     0:02:41.13
     11      -0.03821570      -0.0000203239     0.0389283929     0:02:32.73
     12      -0.03820538       0.0000103221     0.0185343384     0:02:39.34
     13      -0.03820366       0.0000017207     0.0073189021     0:02:37.58
     14      -0.03820185       0.0000018043     0.0033177450     0:02:34.60
     15      -0.03819891       0.0000029460     0.0020486974     0:02:28.45
     16      -0.03819764       0.0000012651     0.0007557303     0:02:34.36
     17      -0.03819735       0.0000002920     0.0002534848     0:02:32.12
     18      -0.03819717       0.0000001768     0.0001433169     0:02:43.67
     19      -0.03819714       0.0000000276     0.0000813559     0:02:27.50
     20      -0.03819722      -0.0000000732     0.0000490302     0:02:24.53
     21      -0.03819727      -0.0000000543     0.0000292436     0:02:39.72
     22      -0.03819733      -0.0000000550     0.0000184165     0:02:32.64
     23      -0.03819732       0.0000000036     0.0000101245     0:02:17.31
     24      -0.03819732       0.0000000001     0.0000054097     0:02:38.58
Successfully converged: Ecorr = -0.038197323231099645
corr(GVB-BCCC3b) = -0.038197323231099645
E(GVB-BCCC3b) = -5.748494330937082
t(final) =
u,tu = ((0, 1), (1, 1)),4.205609854702627e-06
u,tu = ((0, 1), (2, 1)),5.099633658529402e-06
u,tu = ((0, 1), (3, 1)),2.1145956899674306e-06
u,tu = ((0, 1), (4, 1)),-0.00041956592108356424
u,tu = ((0, 1), (5, 1)),-0.00038366640266039565
u,tu = ((1, 1), (2, 1)),-0.0003836705172564873
u,tu = ((1, 1), (3, 1)),-0.00041957734042962717
u,tu = ((1, 1), (4, 1)),2.1146346679420782e-06
u,tu = ((1, 1), (5, 1)),5.0980963161846796e-06
u,tu = ((2, 1), (3, 1)),2.4936713865080136e-06
u,tu = ((2, 1), (4, 1)),1.960948998774364e-06
u,tu = ((2, 1), (5, 1)),-0.0003868018434194423
u,tu = ((3, 1), (4, 1)),1.0651903009710974e-06
u,tu = ((3, 1), (5, 1)),1.9607841305414554e-06
u,tu = ((4, 1), (5, 1)),2.4943331290520237e-06
u,tu = ((0, 1), (1, 2)),-6.735974475157666e-06
u,tu = ((0, 1), (2, 2)),-3.539571701756435e-05
u,tu = ((0, 1), (4, 2)),0.000463291532130384
u,tu = ((0, 1), (5, 2)),0.00045386686094491116
u,tu = ((0, 2), (1, 1)),-6.738093806171084e-06
u,tu = ((1, 1), (2, 2)),0.0004535515469738168
u,tu = ((1, 1), (3, 2)),0.00046348018517039535
u,tu = ((1, 1), (5, 2)),-3.5399231303639156e-05
u,tu = ((0, 2), (2, 1)),-3.5295130898518526e-05
u,tu = ((1, 2), (2, 1)),-0.00045384422620576247
u,tu = ((2, 1), (3, 2)),3.34511646501984e-05
u,tu = ((2, 1), (4, 2)),4.608891718514775e-06
u,tu = ((2, 1), (5, 2)),-0.00045116848503923697
u,tu = ((0, 2), (3, 1)),-2.4343181699381494e-06
u,tu = ((1, 2), (3, 1)),0.0004556624804509893
u,tu = ((2, 2), (3, 1)),3.875873914283945e-05
u,tu = ((3, 1), (5, 2)),-7.718071161762035e-06
u,tu = ((0, 2), (4, 1)),0.0004558465782277159
u,tu = ((1, 2), (4, 1)),-2.433923118054913e-06
u,tu = ((2, 2), (4, 1)),-7.717647439117818e-06
u,tu = ((4, 1), (5, 2)),3.87573882393384e-05
u,tu = ((0, 2), (5, 1)),-0.0004535071856477162
u,tu = ((1, 2), (5, 1)),-3.529514895439998e-05
u,tu = ((2, 2), (5, 1)),-0.0004515135942084123
u,tu = ((3, 2), (5, 1)),4.609163316525977e-06
u,tu = ((4, 2), (5, 1)),3.344940268127237e-05
u,tu = ((0, 2), (1, 2)),-0.00011614927342711461
u,tu = ((0, 2), (2, 2)),-0.0004004610368242898
u,tu = ((0, 2), (3, 2)),4.805526154971943e-05
u,tu = ((0, 2), (4, 2)),-0.002699711242249144
u,tu = ((0, 2), (5, 2)),0.0027267027177145355
u,tu = ((1, 2), (2, 2)),0.002726712307965577
u,tu = ((1, 2), (3, 2)),-0.0026996950388300705
u,tu = ((1, 2), (4, 2)),4.805507052702173e-05
u,tu = ((1, 2), (5, 2)),-0.00040045826107458883
u,tu = ((2, 2), (3, 2)),-0.00039874080658275184
u,tu = ((2, 2), (4, 2)),0.00011604609628057297
u,tu = ((2, 2), (5, 2)),-0.0027408182371276507
u,tu = ((3, 2), (4, 2)),-2.3653326845097494e-05
u,tu = ((3, 2), (5, 2)),0.00011604572514173887
u,tu = ((4, 2), (5, 2)),-0.00039873999280869117
u,tu = ((0, 3), (1, 3)),-0.009749832549578483
u,tu = ((0, 3), (2, 3)),-0.0418037341215436
u,tu = ((0, 3), (3, 3)),0.00268404241238249
u,tu = ((0, 3), (4, 3)),-0.1472726242190303
u,tu = ((0, 3), (5, 3)),0.1489337648415389
u,tu = ((1, 3), (2, 3)),0.14893364429381986
u,tu = ((1, 3), (3, 3)),-0.147272543068082
u,tu = ((1, 3), (4, 3)),0.002684030354815927
u,tu = ((1, 3), (5, 3)),-0.041803702646351325
u,tu = ((2, 3), (3, 3)),-0.04538281030851197
u,tu = ((2, 3), (4, 3)),0.010587908704202406
u,tu = ((2, 3), (5, 3)),-0.14691907371871357
u,tu = ((3, 3), (4, 3)),-0.0007883600493657757
u,tu = ((3, 3), (5, 3)),0.010587941454955514
u,tu = ((4, 3), (5, 3)),-0.04538280240173623
u,tu = ((0, 4), (1, 5)),0.009749837362108105
u,tu = ((0, 4), (2, 5)),0.04180373673793386
u,tu = ((0, 4), (3, 5)),-0.0026840436314937485
u,tu = ((0, 4), (4, 5)),0.14727262588589293
u,tu = ((0, 4), (5, 5)),-0.1489337613842692
u,tu = ((0, 5), (1, 4)),0.009749837362110318
u,tu = ((1, 4), (2, 5)),-0.14893364083646551
u,tu = ((1, 4), (3, 5)),0.14727254473509555
u,tu = ((1, 4), (4, 5)),-0.0026840315737926895
u,tu = ((1, 4), (5, 5)),0.04180370526291583
u,tu = ((0, 5), (2, 4)),0.041803736737938815
u,tu = ((1, 5), (2, 4)),-0.14893364083646565
u,tu = ((2, 4), (3, 5)),0.04538280724722089
u,tu = ((2, 4), (4, 5)),-0.010587908714883524
u,tu = ((2, 4), (5, 5)),0.14691907557607933
u,tu = ((0, 5), (3, 4)),-0.002684043631493947
u,tu = ((1, 5), (3, 4)),0.14727254473507367
u,tu = ((2, 5), (3, 4)),0.04538280724721488
u,tu = ((3, 4), (4, 5)),0.0007883616711100997
u,tu = ((3, 4), (5, 5)),-0.010587941465791194
u,tu = ((0, 5), (4, 4)),0.147272625885904
u,tu = ((1, 5), (4, 4)),-0.0026840315737923226
u,tu = ((2, 5), (4, 4)),-0.010587908714882426
u,tu = ((3, 5), (4, 4)),0.0007883616711100962
u,tu = ((4, 4), (5, 5)),0.04538279934037813
u,tu = ((0, 5), (5, 4)),-0.14893376138427003
u,tu = ((1, 5), (5, 4)),0.041803705262910926
u,tu = ((2, 5), (5, 4)),0.14691907557606246
u,tu = ((3, 5), (5, 4)),-0.0105879414657913
u,tu = ((4, 5), (5, 4)),0.045382799340376756
u,tu = ((0, 6), (2, 15)),-6.741372424874612e-06
u,tu = ((0, 6), (4, 15)),-0.001466237586371921
u,tu = ((0, 6), (5, 15)),-0.0014487290282996328
u,tu = ((1, 6), (2, 15)),-0.0014483837932998266
u,tu = ((1, 6), (3, 15)),-0.0014664407157143854
u,tu = ((1, 6), (5, 15)),-6.74344536983933e-06
u,tu = ((0, 15), (2, 6)),-6.712256938071598e-06
u,tu = ((1, 15), (2, 6)),-0.001448214633716401
u,tu = ((2, 6), (3, 15)),-7.639338070378731e-06
u,tu = ((2, 6), (5, 15)),-0.0014346473561472322
u,tu = ((1, 15), (3, 6)),-0.0014025658694244553
u,tu = ((2, 15), (3, 6)),-7.045703916457081e-06
u,tu = ((0, 15), (4, 6)),-0.0014027502634105951
u,tu = ((4, 6), (5, 15)),-7.044202214004972e-06
u,tu = ((0, 15), (5, 6)),-0.0014478776270512345
u,tu = ((1, 15), (5, 6)),-6.7119009206721655e-06
u,tu = ((2, 15), (5, 6)),-0.001434939029147134
u,tu = ((4, 15), (5, 6)),-7.639948519763622e-06
u,tu = ((0, 7), (1, 13)),-0.0004388794726347959
u,tu = ((0, 7), (2, 13)),0.004322583734918161
u,tu = ((0, 7), (3, 13)),-5.129299132272509e-05
u,tu = ((0, 7), (4, 13)),0.038458355073215184
u,tu = ((0, 7), (5, 13)),0.038705273602986985
u,tu = ((0, 13), (1, 7)),0.000439223476135849
u,tu = ((1, 7), (2, 13)),0.03870496156777104
u,tu = ((1, 7), (3, 13)),0.03845787803357569
u,tu = ((1, 7), (4, 13)),-5.1226736369377266e-05
u,tu = ((1, 7), (5, 13)),0.004322527231009588
u,tu = ((0, 13), (2, 7)),-0.004317598275622502
u,tu = ((1, 13), (2, 7)),0.03870514154926985
u,tu = ((2, 7), (3, 13)),-0.004496537964795645
u,tu = ((2, 7), (4, 13)),0.0004499853585952381
u,tu = ((2, 7), (5, 13)),-0.03837304464719094
u,tu = ((0, 13), (3, 7)),-5.1357226116718946e-05
u,tu = ((1, 13), (3, 7)),-0.038557289172258556
u,tu = ((2, 13), (3, 7)),0.004497243226342833
u,tu = ((3, 7), (4, 13)),6.4445706051704485e-06
u,tu = ((3, 7), (5, 13)),-0.0004520727554481545
u,tu = ((0, 13), (4, 7)),-0.03855675744007418
u,tu = ((1, 13), (4, 7)),-5.1848775998425046e-05
u,tu = ((2, 13), (4, 7)),0.0004521518189298138
u,tu = ((3, 13), (4, 7)),-6.27125078892731e-06
u,tu = ((4, 7), (5, 13)),-0.004495957359162488
u,tu = ((0, 13), (5, 7)),0.03870524033857148
u,tu = ((1, 13), (5, 7)),-0.004317641020308933
u,tu = ((2, 13), (5, 7)),0.03837197033391906
u,tu = ((3, 13), (5, 7)),-0.00045005653337058235
u,tu = ((4, 13), (5, 7)),0.004497757583859697
u,tu = ((0, 7), (1, 14)),-0.000419957709204543
u,tu = ((0, 7), (2, 14)),0.0038128622051630426
u,tu = ((0, 7), (3, 14)),5.2211583647205414e-05
u,tu = ((0, 7), (4, 14)),-0.034596867391621274
u,tu = ((0, 7), (5, 14)),-0.03451270535785885
u,tu = ((0, 14), (1, 7)),0.0004212292341227767
u,tu = ((1, 7), (2, 14)),-0.03451025912753816
u,tu = ((1, 7), (3, 14)),-0.03459763337150038
u,tu = ((1, 7), (4, 14)),5.235160426896004e-05
u,tu = ((1, 7), (5, 14)),0.0038129502429839904
u,tu = ((0, 14), (2, 7)),-0.0038086971300719426
u,tu = ((1, 14), (2, 7)),0.0345141814920177
u,tu = ((2, 7), (3, 14)),0.003939390928989043
u,tu = ((2, 7), (4, 14)),-0.0004273648831018966
u,tu = ((2, 7), (5, 14)),-0.03431742986701211
u,tu = ((0, 14), (3, 7)),-5.2439910411277633e-05
u,tu = ((1, 14), (3, 7)),0.03443729830049702
u,tu = ((2, 14), (3, 7)),-0.003926898517457458
u,tu = ((3, 7), (4, 14)),-6.237078708424435e-06
u,tu = ((3, 7), (5, 14)),-0.0004300021379756996
u,tu = ((0, 14), (4, 7)),0.03443796016617528
u,tu = ((1, 14), (4, 7)),-5.244823257714745e-05
u,tu = ((2, 14), (4, 7)),0.00042984886071287476
u,tu = ((3, 14), (4, 7)),7.448616600030106e-06
u,tu = ((4, 7), (5, 14)),0.003925301542855311
u,tu = ((0, 14), (5, 7)),0.034511916354309585
u,tu = ((1, 14), (5, 7)),-0.003808699985360915
u,tu = ((2, 14), (5, 7)),0.03431873689588742
u,tu = ((3, 14), (5, 7)),0.0004272728983351537
u,tu = ((4, 14), (5, 7)),-0.003940864168673422
u,tu = ((0, 8), (1, 13)),-0.0004378407268575016
u,tu = ((0, 8), (2, 13)),0.003922042765974567
u,tu = ((0, 8), (3, 13)),-5.465907381323466e-05
u,tu = ((0, 8), (4, 13)),-0.037469156335670946
u,tu = ((0, 8), (5, 13)),0.037331571975747956
u,tu = ((0, 13), (1, 8)),0.0004378905667467098
u,tu = ((1, 8), (2, 13)),0.03733043225848747
u,tu = ((1, 8), (3, 13)),-0.03746959991277188
u,tu = ((1, 8), (4, 13)),-5.4659629002062424e-05
u,tu = ((1, 8), (5, 13)),0.003922168805207943
u,tu = ((0, 13), (2, 8)),-0.003924859570862842
u,tu = ((1, 13), (2, 8)),-0.0373271529846179
u,tu = ((2, 8), (3, 13)),0.004035643172181909
u,tu = ((2, 8), (4, 13)),0.00044856260992463527
u,tu = ((2, 8), (5, 13)),-0.03717255304728442
u,tu = ((0, 13), (3, 8)),5.4304401855836524e-05
u,tu = ((1, 13), (3, 8)),0.037379846910328654
u,tu = ((2, 13), (3, 8)),-0.004044761565792705
u,tu = ((3, 8), (4, 13)),-7.161787180903475e-06
u,tu = ((3, 8), (5, 13)),0.00044700515115415613
u,tu = ((0, 13), (4, 8)),0.037380276054442774
u,tu = ((1, 13), (4, 8)),5.432585163059707e-05
u,tu = ((2, 13), (4, 8)),-0.0004468766068222473
u,tu = ((3, 13), (4, 8)),7.148334565307634e-06
u,tu = ((4, 8), (5, 13)),0.004044449712124082
u,tu = ((0, 13), (5, 8)),-0.037326084684635566
u,tu = ((1, 13), (5, 8)),-0.003924729614627078
u,tu = ((2, 13), (5, 8)),0.0371728243174448
u,tu = ((3, 13), (5, 8)),-0.00044851694059656514
u,tu = ((4, 13), (5, 8)),-0.0040358268919997555
u,tu = ((0, 8), (1, 14)),-0.00038777498148579906
u,tu = ((0, 8), (2, 14)),0.003268174101964762
u,tu = ((0, 8), (3, 14)),4.992566387579943e-05
u,tu = ((0, 8), (4, 14)),0.026432034559234898
u,tu = ((0, 8), (5, 14)),-0.02629794944819653
u,tu = ((0, 14), (1, 8)),0.0003878911829024182
u,tu = ((1, 8), (2, 14)),-0.02629797128820971
u,tu = ((1, 8), (3, 14)),0.026431676696966992
u,tu = ((1, 8), (4, 14)),4.968977632589286e-05
u,tu = ((1, 8), (5, 14)),0.0032681828935057626
u,tu = ((0, 14), (2, 8)),-0.0032695188971909256
u,tu = ((1, 14), (2, 8)),-0.026298076680265476
u,tu = ((2, 8), (3, 14)),-0.0033282756454792637
u,tu = ((2, 8), (4, 14)),-0.0003930855724063946
u,tu = ((2, 8), (5, 14)),-0.026268441843328483
u,tu = ((0, 14), (3, 8)),5.0134262468851616e-05
u,tu = ((1, 14), (3, 8)),-0.026509533762302393
u,tu = ((2, 14), (3, 8)),0.003343078544240899
u,tu = ((3, 8), (4, 14)),6.775521051335741e-06
u,tu = ((3, 8), (5, 14)),0.000394771587868288
u,tu = ((0, 14), (4, 8)),-0.02650928813881609
u,tu = ((1, 14), (4, 8)),5.0194781871296745e-05
u,tu = ((2, 14), (4, 8)),-0.00039475038115995546
u,tu = ((3, 14), (4, 8)),-6.732850539946423e-06
u,tu = ((4, 8), (5, 14)),-0.0033424404820388692
u,tu = ((0, 14), (5, 8)),-0.026298018921173595
u,tu = ((1, 14), (5, 8)),-0.0032694617278639006
u,tu = ((2, 14), (5, 8)),0.026267879282292288
u,tu = ((3, 14), (5, 8)),0.0003931716584144372
u,tu = ((4, 14), (5, 8)),0.0033287760234558205
u,tu = ((0, 9), (1, 11)),0.0004388794726348082
u,tu = ((0, 9), (2, 11)),-0.004322583734918323
u,tu = ((0, 9), (3, 11)),5.1292991322724744e-05
u,tu = ((0, 9), (4, 11)),-0.03845835507321631
u,tu = ((0, 9), (5, 11)),-0.03870527360298709
u,tu = ((0, 11), (1, 9)),-0.0004392234761358369
u,tu = ((1, 9), (2, 11)),-0.038704961567771035
u,tu = ((1, 9), (3, 11)),-0.03845787803357351
u,tu = ((1, 9), (4, 11)),5.122673636937695e-05
u,tu = ((1, 9), (5, 11)),-0.004322527231009434
u,tu = ((0, 11), (2, 9)),0.004317598275622338
u,tu = ((1, 11), (2, 9)),-0.0387051415492698
u,tu = ((2, 9), (3, 11)),0.004496537964795478
u,tu = ((2, 9), (4, 11)),-0.0004499853585952297
u,tu = ((2, 9), (5, 11)),0.03837304464718922
u,tu = ((0, 11), (3, 9)),5.1357226116719746e-05
u,tu = ((1, 11), (3, 9)),0.0385572891722607
u,tu = ((2, 11), (3, 9)),-0.004497243226343021
u,tu = ((3, 9), (4, 11)),-6.444570605170669e-06
u,tu = ((3, 9), (5, 11)),0.00045207275544816234
u,tu = ((0, 11), (4, 9)),0.038556757440073114
u,tu = ((1, 11), (4, 9)),5.1848775998425107e-05
u,tu = ((2, 11), (4, 9)),-0.0004521518189298202
u,tu = ((3, 11), (4, 9)),6.271250788927097e-06
u,tu = ((4, 9), (5, 11)),0.004495957359162379
u,tu = ((0, 11), (5, 9)),-0.03870524033857135
u,tu = ((1, 11), (5, 9)),0.0043176410203091
u,tu = ((2, 11), (5, 9)),-0.03837197033392082
u,tu = ((3, 11), (5, 9)),0.0004500565333705817
u,tu = ((4, 11), (5, 9)),-0.0044977575838597746
u,tu = ((0, 9), (1, 12)),0.00041995770920454957
u,tu = ((0, 9), (2, 12)),-0.0038128622051631306
u,tu = ((0, 9), (3, 12)),-5.221158364720537e-05
u,tu = ((0, 9), (4, 12)),0.03459686739162192
u,tu = ((0, 9), (5, 12)),0.034512705357858865
u,tu = ((0, 12), (1, 9)),-0.0004212292341227693
u,tu = ((1, 9), (2, 12)),0.03451025912753819
u,tu = ((1, 9), (3, 12)),0.034597633371499036
u,tu = ((1, 9), (4, 12)),-5.23516042689596e-05
u,tu = ((1, 9), (5, 12)),-0.003812950242983908
u,tu = ((0, 12), (2, 9)),0.0038086971300718463
u,tu = ((1, 12), (2, 9)),-0.03451418149201769
u,tu = ((2, 9), (3, 12)),-0.003939390928988948
u,tu = ((2, 9), (4, 12)),0.0004273648831018896
u,tu = ((2, 9), (5, 12)),0.034317429867011084
u,tu = ((0, 12), (3, 9)),5.2439910411278636e-05
u,tu = ((1, 12), (3, 9)),-0.03443729830049828
u,tu = ((2, 12), (3, 9)),0.0039268985174575905
u,tu = ((3, 9), (4, 12)),6.237078708424645e-06
u,tu = ((3, 9), (5, 12)),0.0004300021379757057
u,tu = ((0, 12), (4, 9)),-0.03443796016617464
u,tu = ((1, 12), (4, 9)),5.244823257714722e-05
u,tu = ((2, 12), (4, 9)),-0.0004298488607128778
u,tu = ((3, 12), (4, 9)),-7.448616600029962e-06
u,tu = ((4, 9), (5, 12)),-0.003925301542855258
u,tu = ((0, 12), (5, 9)),-0.03451191635430953
u,tu = ((1, 12), (5, 9)),0.0038086999853610055
u,tu = ((2, 12), (5, 9)),-0.03431873689588844
u,tu = ((3, 12), (5, 9)),-0.0004272728983351546
u,tu = ((4, 12), (5, 9)),0.003940864168673477
u,tu = ((0, 10), (1, 11)),0.00043784072685750907
u,tu = ((0, 10), (2, 11)),-0.00392204276597468
u,tu = ((0, 10), (3, 11)),5.465907381323405e-05
u,tu = ((0, 10), (4, 11)),0.0374691563356715
u,tu = ((0, 10), (5, 11)),-0.037331571975748
u,tu = ((0, 11), (1, 10)),-0.0004378905667467018
u,tu = ((1, 10), (2, 11)),-0.03733043225848747
u,tu = ((1, 10), (3, 11)),0.03746959991277091
u,tu = ((1, 10), (4, 11)),5.465962900206218e-05
u,tu = ((1, 10), (5, 11)),-0.00392216880520785
u,tu = ((0, 11), (2, 10)),0.003924859570862761
u,tu = ((1, 11), (2, 10)),0.03732715298461785
u,tu = ((2, 10), (3, 11)),-0.004035643172181789
u,tu = ((2, 10), (4, 11)),-0.000448562609924634
u,tu = ((2, 10), (5, 11)),0.037172553047283625
u,tu = ((0, 11), (3, 10)),-5.4304401855836795e-05
u,tu = ((1, 11), (3, 10)),-0.0373798469103297
u,tu = ((2, 11), (3, 10)),0.004044761565792809
u,tu = ((3, 10), (4, 11)),7.161787180903584e-06
u,tu = ((3, 10), (5, 11)),-0.00044700515115415575
u,tu = ((0, 11), (4, 10)),-0.03738027605444224
u,tu = ((1, 11), (4, 10)),-5.432585163059734e-05
u,tu = ((2, 11), (4, 10)),0.00044687660682225295
u,tu = ((3, 11), (4, 10)),-7.148334565307488e-06
u,tu = ((4, 10), (5, 11)),-0.0040444497121240285
u,tu = ((0, 11), (5, 10)),0.037326084684635545
u,tu = ((1, 11), (5, 10)),0.003924729614627153
u,tu = ((2, 11), (5, 10)),-0.037172824317445625
u,tu = ((3, 11), (5, 10)),0.0004485169405965582
u,tu = ((4, 11), (5, 10)),0.004035826891999804
u,tu = ((0, 10), (1, 12)),0.0003877749814858034
u,tu = ((0, 10), (2, 12)),-0.003268174101964813
u,tu = ((0, 10), (3, 12)),-4.9925663875799115e-05
u,tu = ((0, 10), (4, 12)),-0.02643203455923501
u,tu = ((0, 10), (5, 12)),0.026297949448196536
u,tu = ((0, 12), (1, 10)),-0.00038789118290241377
u,tu = ((1, 10), (2, 12)),0.026297971288209706
u,tu = ((1, 10), (3, 12)),-0.026431676696966798
u,tu = ((1, 10), (4, 12)),-4.968977632589269e-05
u,tu = ((1, 10), (5, 12)),-0.0032681828935057144
u,tu = ((0, 12), (2, 10)),0.003269518897190875
u,tu = ((1, 12), (2, 10)),0.02629807668026547
u,tu = ((2, 10), (3, 12)),0.003328275645479193
u,tu = ((2, 10), (4, 12)),0.0003930855724063927
u,tu = ((2, 10), (5, 12)),0.026268441843328338
u,tu = ((0, 12), (3, 10)),-5.0134262468852e-05
u,tu = ((1, 12), (3, 10)),0.02650953376230258
u,tu = ((2, 12), (3, 10)),-0.003343078544240962
u,tu = ((3, 10), (4, 12)),-6.7755210513358596e-06
u,tu = ((3, 10), (5, 12)),-0.0003947715878682881
u,tu = ((0, 12), (4, 10)),0.026509288138815982
u,tu = ((1, 12), (4, 10)),-5.0194781871296833e-05
u,tu = ((2, 12), (4, 10)),0.00039475038115995877
u,tu = ((3, 12), (4, 10)),6.732850539946293e-06
u,tu = ((4, 10), (5, 12)),0.003342440482038843
u,tu = ((0, 12), (5, 10)),0.02629801892117358
u,tu = ((1, 12), (5, 10)),0.0032694617278639414
u,tu = ((2, 12), (5, 10)),-0.026267879282292426
u,tu = ((3, 12), (5, 10)),-0.0003931716584144338
u,tu = ((4, 12), (5, 10)),-0.0033287760234558495
u,tu = ((0, 1), (2, 1), (5, 1)),5.960167345355738e-06
u,tu = ((0, 1), (4, 1), (5, 1)),5.536821642794251e-06
u,tu = ((1, 1), (2, 1), (3, 1)),5.536588871269352e-06
u,tu = ((1, 1), (2, 1), (5, 1)),5.959078186415865e-06
u,tu = ((0, 1), (2, 2), (4, 1)),-1.2316624931800102e-06
u,tu = ((0, 1), (4, 1), (5, 2)),1.1043836553618657e-05
u,tu = ((0, 1), (1, 2), (5, 1)),-1.0674057650866692e-06
u,tu = ((0, 1), (2, 2), (5, 1)),-9.694617011778266e-06
u,tu = ((0, 1), (4, 2), (5, 1)),9.677845997339993e-06
u,tu = ((0, 2), (1, 1), (2, 1)),-1.0682295579348025e-06
u,tu = ((1, 1), (2, 1), (3, 2)),9.675757932521503e-06
u,tu = ((1, 1), (2, 1), (5, 2)),-9.698037965022864e-06
u,tu = ((1, 1), (2, 2), (3, 1)),1.1045672597971515e-05
u,tu = ((1, 1), (3, 1), (5, 2)),-1.2316781579292863e-06
u,tu = ((0, 2), (2, 1), (5, 1)),-9.691885707815236e-06
u,tu = ((1, 2), (2, 1), (5, 1)),-9.68951630782246e-06
u,tu = ((0, 1), (1, 2), (4, 2)),2.8535478346373533e-06
u,tu = ((0, 1), (1, 2), (5, 2)),-4.5206486984868625e-06
u,tu = ((0, 1), (2, 2), (4, 2)),9.734024520347123e-06
u,tu = ((0, 1), (2, 2), (5, 2)),-2.386202840425557e-05
u,tu = ((0, 1), (3, 2), (4, 2)),-1.079613047954315e-06
u,tu = ((0, 1), (3, 2), (5, 2)),1.7842907140648372e-06
u,tu = ((0, 1), (4, 2), (5, 2)),-7.53781713695374e-05
u,tu = ((0, 2), (1, 1), (2, 2)),-4.520718244459797e-06
u,tu = ((0, 2), (1, 1), (3, 2)),2.8535048456399787e-06
u,tu = ((1, 1), (2, 2), (3, 2)),-7.537912035866131e-05
u,tu = ((1, 1), (2, 2), (4, 2)),1.784147525592831e-06
u,tu = ((1, 1), (2, 2), (5, 2)),-2.386227397744626e-05
u,tu = ((1, 1), (3, 2), (4, 2)),-1.0795113811528965e-06
u,tu = ((1, 1), (3, 2), (5, 2)),9.733765388410999e-06
u,tu = ((0, 2), (1, 2), (2, 1)),-9.681895991609224e-06
u,tu = ((0, 2), (2, 1), (3, 2)),1.03388884291533e-06
u,tu = ((0, 2), (2, 1), (5, 2)),2.3891692515073473e-05
u,tu = ((1, 2), (2, 1), (3, 2)),-2.3591940315684957e-05
u,tu = ((1, 2), (2, 1), (4, 2)),2.7547802668596517e-06
u,tu = ((1, 2), (2, 1), (5, 2)),-7.553491580297465e-05
u,tu = ((2, 1), (3, 2), (5, 2)),9.655007633225832e-06
u,tu = ((2, 1), (4, 2), (5, 2)),-4.668725206688624e-06
u,tu = ((0, 2), (1, 2), (3, 1)),-1.706304561244332e-06
u,tu = ((1, 2), (2, 2), (3, 1)),2.3327103029146675e-05
u,tu = ((1, 2), (3, 1), (5, 2)),-4.691541017933334e-06
u,tu = ((0, 2), (1, 2), (4, 1)),-1.7062123293329612e-06
u,tu = ((0, 2), (2, 2), (4, 1)),-4.6910180412001685e-06
u,tu = ((0, 2), (4, 1), (5, 2)),2.332567337894347e-05
u,tu = ((0, 2), (1, 2), (5, 1)),-9.68223402379049e-06
u,tu = ((0, 2), (2, 2), (5, 1)),-7.553687622234283e-05
u,tu = ((0, 2), (3, 2), (5, 1)),2.7550539238280576e-06
u,tu = ((0, 2), (4, 2), (5, 1)),-2.3593199615798855e-05
u,tu = ((1, 2), (2, 2), (5, 1)),2.3889684657257657e-05
u,tu = ((1, 2), (4, 2), (5, 1)),1.0338713014677015e-06
u,tu = ((2, 2), (3, 2), (5, 1)),-4.66883316509728e-06
u,tu = ((2, 2), (4, 2), (5, 1)),9.654504804595399e-06
u,tu = ((0, 1), (1, 3), (2, 3)),-0.0006335521571247982
u,tu = ((0, 1), (1, 3), (3, 3)),0.0006384518290103744
u,tu = ((0, 1), (1, 3), (4, 3)),8.189247015151568e-06
u,tu = ((0, 1), (1, 3), (5, 3)),0.0001570742904758219
u,tu = ((0, 1), (2, 3), (3, 3)),0.00018516506048104733
u,tu = ((0, 1), (2, 3), (4, 3)),4.4190162754307355e-05
u,tu = ((0, 1), (2, 3), (5, 3)),0.0005194011770983313
u,tu = ((0, 1), (3, 3), (4, 3)),-2.283643279757456e-06
u,tu = ((0, 1), (3, 3), (5, 3)),-4.066318402661478e-05
u,tu = ((0, 1), (4, 3), (5, 3)),-0.0006813689579861799
u,tu = ((0, 3), (1, 1), (2, 3)),0.00015707960856700196
u,tu = ((0, 3), (1, 1), (3, 3)),8.188157078402487e-06
u,tu = ((0, 3), (1, 1), (4, 3)),0.0006384664600762977
u,tu = ((0, 3), (1, 1), (5, 3)),-0.0006335670073914006
u,tu = ((1, 1), (2, 3), (3, 3)),-0.00068140887149106
u,tu = ((1, 1), (2, 3), (4, 3)),-4.066437775901505e-05
u,tu = ((1, 1), (2, 3), (5, 3)),0.0005194097709033179
u,tu = ((1, 1), (3, 3), (4, 3)),-2.2833462905269813e-06
u,tu = ((1, 1), (3, 3), (5, 3)),4.418712512797128e-05
u,tu = ((1, 1), (4, 3), (5, 3)),0.00018516911696353245
u,tu = ((0, 3), (1, 3), (2, 1)),-4.297229080148901e-05
u,tu = ((0, 3), (2, 1), (3, 3)),-1.2951573485042276e-05
u,tu = ((0, 3), (2, 1), (4, 3)),0.0006365627452206522
u,tu = ((0, 3), (2, 1), (5, 3)),-0.0005213988294634926
u,tu = ((1, 3), (2, 1), (3, 3)),0.000505047020108618
u,tu = ((1, 3), (2, 1), (4, 3)),9.403341060249297e-06
u,tu = ((1, 3), (2, 1), (5, 3)),-0.0006346518924657266
u,tu = ((2, 1), (3, 3), (4, 3)),4.138475923963784e-06
u,tu = ((2, 1), (3, 3), (5, 3)),4.9517586571015284e-05
u,tu = ((2, 1), (4, 3), (5, 3)),0.000171506492330323
u,tu = ((0, 3), (1, 3), (3, 1)),1.53844373994082e-05
u,tu = ((0, 3), (2, 3), (3, 1)),8.47372372211339e-05
u,tu = ((0, 3), (3, 1), (4, 3)),0.00032288404440423935
u,tu = ((0, 3), (3, 1), (5, 3)),-0.00031879366894535077
u,tu = ((1, 3), (2, 3), (3, 1)),-0.0001730730850596654
u,tu = ((1, 3), (3, 1), (4, 3)),-4.2021137704816345e-06
u,tu = ((1, 3), (3, 1), (5, 3)),6.633914313586898e-05
u,tu = ((2, 3), (3, 1), (4, 3)),-2.214522988349798e-05
u,tu = ((2, 3), (3, 1), (5, 3)),0.0003178701602628178
u,tu = ((3, 1), (4, 3), (5, 3)),9.317009529794403e-05
u,tu = ((0, 3), (1, 3), (4, 1)),1.5384344298360994e-05
u,tu = ((0, 3), (2, 3), (4, 1)),6.633897996261033e-05
u,tu = ((0, 3), (3, 3), (4, 1)),-4.2021242381891425e-06
u,tu = ((0, 3), (4, 1), (5, 3)),-0.00017307416626798525
u,tu = ((1, 3), (2, 3), (4, 1)),-0.00031879400604131226
u,tu = ((1, 3), (3, 3), (4, 1)),0.0003228846047274548
u,tu = ((1, 3), (4, 1), (5, 3)),8.473746783897653e-05
u,tu = ((2, 3), (3, 3), (4, 1)),9.317033912816985e-05
u,tu = ((2, 3), (4, 1), (5, 3)),0.000317871250561095
u,tu = ((3, 3), (4, 1), (5, 3)),-2.2145380880250003e-05
u,tu = ((0, 3), (1, 3), (5, 1)),-4.298193015375726e-05
u,tu = ((0, 3), (2, 3), (5, 1)),-0.000634657880132061
u,tu = ((0, 3), (3, 3), (5, 1)),9.405909831274815e-06
u,tu = ((0, 3), (4, 3), (5, 1)),0.0005050392070698118
u,tu = ((1, 3), (2, 3), (5, 1)),-0.0005213993066126332
u,tu = ((1, 3), (3, 3), (5, 1)),0.0006365593477379001
u,tu = ((1, 3), (4, 3), (5, 1)),-1.2951864925999617e-05
u,tu = ((2, 3), (3, 3), (5, 1)),0.00017150502503974571
u,tu = ((2, 3), (4, 3), (5, 1)),4.950655950839354e-05
u,tu = ((3, 3), (4, 3), (5, 1)),4.138552687892503e-06
u,tu = ((0, 1), (1, 4), (2, 5)),0.0006335521463174356
u,tu = ((0, 1), (1, 4), (3, 5)),-0.0006384518493367224
u,tu = ((0, 1), (1, 4), (4, 5)),-8.189237037259938e-06
u,tu = ((0, 1), (1, 4), (5, 5)),-0.0001570743172842977
u,tu = ((0, 1), (1, 5), (2, 4)),0.000633552146317438
u,tu = ((0, 1), (2, 4), (3, 5)),-0.0001851650425796907
u,tu = ((0, 1), (2, 4), (4, 5)),-4.419017780803717e-05
u,tu = ((0, 1), (2, 4), (5, 5)),-0.0005194011765205045
u,tu = ((0, 1), (1, 5), (3, 4)),-0.0006384518493366437
u,tu = ((0, 1), (2, 5), (3, 4)),-0.00018516504257965472
u,tu = ((0, 1), (3, 4), (4, 5)),2.2836007519737816e-06
u,tu = ((0, 1), (3, 4), (5, 5)),4.066321245984138e-05
u,tu = ((0, 1), (1, 5), (4, 4)),-8.189237037256054e-06
u,tu = ((0, 1), (2, 5), (4, 4)),-4.419017780803233e-05
u,tu = ((0, 1), (3, 5), (4, 4)),2.283600751973292e-06
u,tu = ((0, 1), (4, 4), (5, 5)),0.0006813690410216237
u,tu = ((0, 1), (1, 5), (5, 4)),-0.00015707431728428017
u,tu = ((0, 1), (2, 5), (5, 4)),-0.0005194011765204149
u,tu = ((0, 1), (3, 5), (5, 4)),4.0663212459846286e-05
u,tu = ((0, 1), (4, 5), (5, 4)),0.000681369041021575
u,tu = ((0, 4), (1, 1), (2, 5)),-0.00015707963537869984
u,tu = ((0, 4), (1, 1), (3, 5)),-8.188147098715162e-06
u,tu = ((0, 4), (1, 1), (4, 5)),-0.0006384664804030811
u,tu = ((0, 4), (1, 1), (5, 5)),0.0006335669965838262
u,tu = ((0, 5), (1, 1), (2, 4)),-0.0001570796353787101
u,tu = ((1, 1), (2, 4), (3, 5)),0.0006814089545309616
u,tu = ((1, 1), (2, 4), (4, 5)),4.066440619519875e-05
u,tu = ((1, 1), (2, 4), (5, 5)),-0.0005194097703208235
u,tu = ((0, 5), (1, 1), (3, 4)),-8.188147098718823e-06
u,tu = ((1, 1), (2, 5), (3, 4)),0.0006814089545309434
u,tu = ((1, 1), (3, 4), (4, 5)),2.283303761740143e-06
u,tu = ((1, 1), (3, 4), (5, 5)),-4.418714018311391e-05
u,tu = ((0, 5), (1, 1), (4, 4)),-0.0006384664804031221
u,tu = ((1, 1), (2, 5), (4, 4)),4.066440619519954e-05
u,tu = ((1, 1), (3, 5), (4, 4)),2.2833037617391428e-06
u,tu = ((1, 1), (4, 4), (5, 5)),-0.0001851690990610343
u,tu = ((0, 5), (1, 1), (5, 4)),0.0006335669965838332
u,tu = ((1, 1), (2, 5), (5, 4)),-0.000519409770320753
u,tu = ((1, 1), (3, 5), (5, 4)),-4.418714018310627e-05
u,tu = ((1, 1), (4, 5), (5, 4)),-0.0001851690990610415
u,tu = ((0, 4), (1, 5), (2, 1)),4.297224294693069e-05
u,tu = ((0, 4), (2, 1), (3, 5)),1.2951590147552891e-05
u,tu = ((0, 4), (2, 1), (4, 5)),-0.000636562765291392
u,tu = ((0, 4), (2, 1), (5, 5)),0.000521398791573885
u,tu = ((0, 5), (1, 4), (2, 1)),4.297224294693123e-05
u,tu = ((1, 4), (2, 1), (3, 5)),-0.0005050470668357664
u,tu = ((1, 4), (2, 1), (4, 5)),-9.40331856404718e-06
u,tu = ((1, 4), (2, 1), (5, 5)),0.0006346518786025664
u,tu = ((0, 5), (2, 1), (3, 4)),1.2951590147554047e-05
u,tu = ((1, 5), (2, 1), (3, 4)),-0.000505047066835646
u,tu = ((2, 1), (3, 4), (4, 5)),-4.138491399923129e-06
u,tu = ((2, 1), (3, 4), (5, 5)),-4.951754848286311e-05
u,tu = ((0, 5), (2, 1), (4, 4)),-0.0006365627652914128
u,tu = ((1, 5), (2, 1), (4, 4)),-9.40331856404649e-06
u,tu = ((2, 1), (3, 5), (4, 4)),-4.138491399923499e-06
u,tu = ((2, 1), (4, 4), (5, 5)),-0.00017150647219130264
u,tu = ((0, 5), (2, 1), (5, 4)),0.0005213987915738876
u,tu = ((1, 5), (2, 1), (5, 4)),0.0006346518786025407
u,tu = ((2, 1), (3, 5), (5, 4)),-4.951754848287593e-05
u,tu = ((2, 1), (4, 5), (5, 4)),-0.00017150647219130427
u,tu = ((0, 4), (1, 5), (3, 1)),-1.538448054496534e-05
u,tu = ((0, 4), (2, 5), (3, 1)),-8.473724399630725e-05
u,tu = ((0, 4), (3, 1), (4, 5)),-0.0003228840542925752
u,tu = ((0, 4), (3, 1), (5, 5)),0.0003187936635420533
u,tu = ((0, 5), (1, 4), (3, 1)),-1.538448054497256e-05
u,tu = ((1, 4), (2, 5), (3, 1)),0.00017307309846722836
u,tu = ((1, 4), (3, 1), (4, 5)),4.20211098165379e-06
u,tu = ((1, 4), (3, 1), (5, 5)),-6.633915064443248e-05
u,tu = ((0, 5), (2, 4), (3, 1)),-8.473724399631718e-05
u,tu = ((1, 5), (2, 4), (3, 1)),0.00017307309846721313
u,tu = ((2, 4), (3, 1), (4, 5)),2.2145233937307326e-05
u,tu = ((2, 4), (3, 1), (5, 5)),-0.0003178701684692332
u,tu = ((0, 5), (3, 1), (4, 4)),-0.00032288405429262113
u,tu = ((1, 5), (3, 1), (4, 4)),4.202110981652582e-06
u,tu = ((2, 5), (3, 1), (4, 4)),2.2145233937306893e-05
u,tu = ((3, 1), (4, 4), (5, 5)),-9.317008608375676e-05
u,tu = ((0, 5), (3, 1), (5, 4)),0.0003187936635420687
u,tu = ((1, 5), (3, 1), (5, 4)),-6.633915064442803e-05
u,tu = ((2, 5), (3, 1), (5, 4)),-0.0003178701684692147
u,tu = ((3, 1), (4, 5), (5, 4)),-9.317008608376641e-05
u,tu = ((0, 4), (1, 5), (4, 1)),-1.5384387444798873e-05
u,tu = ((0, 4), (2, 5), (4, 1)),-6.633898747118395e-05
u,tu = ((0, 4), (3, 5), (4, 1)),4.202121449870507e-06
u,tu = ((0, 4), (4, 1), (5, 5)),0.00017307417967464886
u,tu = ((0, 5), (1, 4), (4, 1)),-1.538438744480581e-05
u,tu = ((1, 4), (2, 5), (4, 1)),0.0003187940006379265
u,tu = ((1, 4), (3, 5), (4, 1)),-0.0003228846146160176
u,tu = ((1, 4), (4, 1), (5, 5)),-8.473747461382553e-05
u,tu = ((0, 5), (2, 4), (4, 1)),-6.633898747120406e-05
u,tu = ((1, 5), (2, 4), (4, 1)),0.00031879400063797335
u,tu = ((2, 4), (3, 5), (4, 1)),-9.317032991437958e-05
u,tu = ((2, 4), (4, 1), (5, 5)),-0.00031787125876759693
u,tu = ((0, 5), (3, 4), (4, 1)),4.202121449870376e-06
u,tu = ((1, 5), (3, 4), (4, 1)),-0.00032288461461596203
u,tu = ((2, 5), (3, 4), (4, 1)),-9.317032991434129e-05
u,tu = ((3, 4), (4, 1), (5, 5)),2.2145384934324046e-05
u,tu = ((0, 5), (4, 1), (5, 4)),0.00017307417967463558
u,tu = ((1, 5), (4, 1), (5, 4)),-8.47374746138277e-05
u,tu = ((2, 5), (4, 1), (5, 4)),-0.00031787125876759796
u,tu = ((3, 5), (4, 1), (5, 4)),2.2145384934319875e-05
u,tu = ((0, 4), (1, 5), (5, 1)),4.298188230529301e-05
u,tu = ((0, 4), (2, 5), (5, 1)),0.0006346578662706626
u,tu = ((0, 4), (3, 5), (5, 1)),-9.40588733384781e-06
u,tu = ((0, 4), (4, 5), (5, 1)),-0.0005050392537993879
u,tu = ((0, 5), (1, 4), (5, 1)),4.298188230528715e-05
u,tu = ((1, 4), (2, 5), (5, 1)),0.0005213992687238157
u,tu = ((1, 4), (3, 5), (5, 1)),-0.0006365593678086726
u,tu = ((1, 4), (4, 5), (5, 1)),1.2951881588148704e-05
u,tu = ((0, 5), (2, 4), (5, 1)),0.0006346578662706861
u,tu = ((1, 5), (2, 4), (5, 1)),0.0005213992687238089
u,tu = ((2, 4), (3, 5), (5, 1)),-0.00017150500490090048
u,tu = ((2, 4), (4, 5), (5, 1)),-4.950652142439732e-05
u,tu = ((0, 5), (3, 4), (5, 1)),-9.405887333848228e-06
u,tu = ((1, 5), (3, 4), (5, 1)),-0.0006365593678085611
u,tu = ((2, 5), (3, 4), (5, 1)),-0.00017150500490086508
u,tu = ((3, 4), (4, 5), (5, 1)),-4.138568163704676e-06
u,tu = ((0, 5), (4, 4), (5, 1)),-0.0005050392537993883
u,tu = ((1, 5), (4, 4), (5, 1)),1.2951881588147622e-05
u,tu = ((2, 5), (4, 4), (5, 1)),-4.950652142440524e-05
u,tu = ((3, 5), (4, 4), (5, 1)),-4.138568163704885e-06
u,tu = ((0, 1), (1, 6), (2, 15)),4.939505265543569e-06
u,tu = ((0, 1), (1, 6), (3, 15)),5.549397839438754e-06
u,tu = ((0, 1), (1, 15), (2, 6)),5.654270116621885e-06
u,tu = ((0, 1), (2, 6), (5, 15)),-6.929553621034795e-06
u,tu = ((0, 1), (1, 15), (3, 6)),5.205354034200138e-06
u,tu = ((0, 1), (4, 6), (5, 15)),-1.0587770104415009e-06
u,tu = ((0, 1), (2, 15), (5, 6)),3.713899145089019e-06
u,tu = ((0, 1), (4, 15), (5, 6)),-1.4396769609065618e-06
u,tu = ((0, 6), (1, 1), (4, 15)),5.548828269881777e-06
u,tu = ((0, 6), (1, 1), (5, 15)),4.941134464194031e-06
u,tu = ((1, 1), (2, 6), (3, 15)),-1.4404829460531187e-06
u,tu = ((1, 1), (2, 6), (5, 15)),3.7108843132877647e-06
u,tu = ((1, 1), (2, 15), (3, 6)),-1.058990013886913e-06
u,tu = ((0, 15), (1, 1), (4, 6)),5.206116492918942e-06
u,tu = ((0, 15), (1, 1), (5, 6)),5.652577737248103e-06
u,tu = ((1, 1), (2, 15), (5, 6)),-6.927748049194843e-06
u,tu = ((0, 6), (2, 1), (4, 15)),5.728162320365557e-06
u,tu = ((0, 6), (2, 1), (5, 15)),-7.016099858927854e-06
u,tu = ((1, 6), (2, 1), (3, 15)),3.400757765486339e-06
u,tu = ((1, 15), (2, 1), (3, 6)),-7.161062653972048e-06
u,tu = ((0, 15), (2, 1), (4, 6)),4.832314206587759e-06
u,tu = ((0, 15), (2, 1), (5, 6)),3.658502245628831e-06
u,tu = ((0, 6), (3, 1), (4, 15)),2.7935692292895526e-06
u,tu = ((0, 6), (3, 1), (5, 15)),2.615885403893776e-06
u,tu = ((1, 15), (2, 6), (3, 1)),-1.0319132367366021e-05
u,tu = ((2, 6), (3, 1), (5, 15)),3.0028597154647417e-06
u,tu = ((0, 15), (3, 1), (4, 6)),2.639370688899846e-06
u,tu = ((0, 15), (3, 1), (5, 6)),2.782861456743977e-06
u,tu = ((2, 15), (3, 1), (5, 6)),2.2330926265814818e-06
u,tu = ((1, 6), (2, 15), (4, 1)),2.615290743763433e-06
u,tu = ((1, 6), (3, 15), (4, 1)),2.793893989752345e-06
u,tu = ((1, 15), (2, 6), (4, 1)),2.7834900597333935e-06
u,tu = ((2, 6), (4, 1), (5, 15)),2.232429676670434e-06
u,tu = ((1, 15), (3, 6), (4, 1)),2.639080152679031e-06
u,tu = ((0, 15), (4, 1), (5, 6)),-1.0319618590536222e-05
u,tu = ((2, 15), (4, 1), (5, 6)),3.003547722241923e-06
u,tu = ((0, 6), (4, 15), (5, 1)),3.3987625102744464e-06
u,tu = ((1, 6), (2, 15), (5, 1)),-7.019682482706421e-06
u,tu = ((1, 6), (3, 15), (5, 1)),5.728993686512689e-06
u,tu = ((1, 15), (2, 6), (5, 1)),3.6607780789850617e-06
u,tu = ((1, 15), (3, 6), (5, 1)),4.831502975368053e-06
u,tu = ((0, 15), (4, 6), (5, 1)),-7.160264897795829e-06
u,tu = ((0, 1), (1, 7), (2, 13)),-0.0001331694785984603
u,tu = ((0, 1), (1, 7), (3, 13)),-0.0001420060470720558
u,tu = ((0, 1), (1, 7), (4, 13)),-2.929623417070476e-05
u,tu = ((0, 1), (1, 7), (5, 13)),-1.3916375530800407e-06
u,tu = ((0, 1), (1, 13), (2, 7)),-0.00014560229381320837
u,tu = ((0, 1), (2, 7), (3, 13)),1.4392096727491334e-05
u,tu = ((0, 1), (2, 7), (4, 13)),0.0002693399278660715
u,tu = ((0, 1), (2, 7), (5, 13)),2.524486312267822e-05
u,tu = ((0, 1), (1, 13), (3, 7)),0.00013963416726836195
u,tu = ((0, 1), (2, 13), (3, 7)),-1.2963322748112623e-05
u,tu = ((0, 1), (3, 7), (4, 13)),3.5360506413914668e-06
u,tu = ((0, 1), (1, 13), (4, 7)),-2.808869305403589e-05
u,tu = ((0, 1), (2, 13), (4, 7)),0.00026697913078096145
u,tu = ((0, 1), (3, 13), (4, 7)),-3.401088970979492e-06
u,tu = ((0, 1), (4, 7), (5, 13)),-0.003518712090482873
u,tu = ((0, 1), (1, 13), (5, 7)),1.4799803254486692e-05
u,tu = ((0, 1), (2, 13), (5, 7)),-0.00015514049507536502
u,tu = ((0, 1), (3, 13), (5, 7)),1.6821615470011356e-06
u,tu = ((0, 1), (4, 13), (5, 7)),0.0035260019923745124
u,tu = ((0, 7), (1, 1), (2, 13)),-1.3578315754657652e-06
u,tu = ((0, 7), (1, 1), (3, 13)),-2.9235677269559103e-05
u,tu = ((0, 7), (1, 1), (4, 13)),-0.00014201101694293175
u,tu = ((0, 7), (1, 1), (5, 13)),-0.00013316989650800863
u,tu = ((0, 13), (1, 1), (2, 7)),1.4794699996168876e-05
u,tu = ((1, 1), (2, 7), (3, 13)),-0.003526089313637357
u,tu = ((1, 1), (2, 7), (4, 13)),-1.685629428506924e-06
u,tu = ((1, 1), (2, 7), (5, 13)),0.00015513910073741507
u,tu = ((0, 13), (1, 1), (3, 7)),-2.810271717851216e-05
u,tu = ((1, 1), (2, 13), (3, 7)),0.003518648715698196
u,tu = ((1, 1), (3, 7), (4, 13)),3.3978088662154285e-06
u,tu = ((1, 1), (3, 7), (5, 13)),-0.00026698418603271723
u,tu = ((0, 13), (1, 1), (4, 7)),0.00013963564768775763
u,tu = ((1, 1), (3, 13), (4, 7)),-3.554329431645394e-06
u,tu = ((1, 1), (4, 7), (5, 13)),1.295888805391102e-05
u,tu = ((0, 13), (1, 1), (5, 7)),-0.00014560675381998696
u,tu = ((1, 1), (2, 13), (5, 7)),-2.5252625330096605e-05
u,tu = ((1, 1), (3, 13), (5, 7)),-0.0002693410727260231
u,tu = ((1, 1), (4, 13), (5, 7)),-1.4395882641719321e-05
u,tu = ((0, 7), (1, 13), (2, 1)),-0.000263362058010714
u,tu = ((0, 7), (2, 1), (3, 13)),-2.234532070261816e-05
u,tu = ((0, 7), (2, 1), (4, 13)),-0.000145652210327067
u,tu = ((0, 7), (2, 1), (5, 13)),-2.495802206720796e-05
u,tu = ((0, 13), (1, 7), (2, 1)),0.00025950673730033147
u,tu = ((1, 7), (2, 1), (3, 13)),-0.00015264717861546953
u,tu = ((1, 7), (2, 1), (4, 13)),-2.8198044288334532e-05
u,tu = ((1, 7), (2, 1), (5, 13)),0.0033699700378000347
u,tu = ((0, 13), (2, 1), (3, 7)),-2.230930347584844e-05
u,tu = ((1, 13), (2, 1), (3, 7)),2.133354248651811e-05
u,tu = ((2, 1), (3, 7), (4, 13)),2.4868841710512393e-06
u,tu = ((2, 1), (3, 7), (5, 13)),-0.0002701811005627706
u,tu = ((0, 13), (2, 1), (4, 7)),0.00013369202509373293
u,tu = ((1, 13), (2, 1), (4, 7)),-2.9468522176816455e-05
u,tu = ((2, 1), (3, 13), (4, 7)),-2.543950380204771e-06
u,tu = ((2, 1), (4, 7), (5, 13)),1.6439580672280036e-06
u,tu = ((0, 13), (2, 1), (5, 7)),-0.00015494505937261457
u,tu = ((1, 13), (2, 1), (5, 7)),-0.003366772602069515
u,tu = ((2, 1), (3, 13), (5, 7)),-0.000266155075839688
u,tu = ((2, 1), (4, 13), (5, 7)),-1.526909854289921e-05
u,tu = ((0, 7), (2, 13), (3, 1)),-5.761966906292707e-06
u,tu = ((0, 7), (3, 1), (4, 13)),-7.150623397616192e-05
u,tu = ((0, 7), (3, 1), (5, 13)),-6.872626343707746e-05
u,tu = ((1, 7), (2, 13), (3, 1)),-8.213349595873938e-05
u,tu = ((1, 7), (3, 1), (5, 13)),-8.071480939721587e-06
u,tu = ((0, 13), (2, 7), (3, 1)),7.309315216039575e-06
u,tu = ((1, 13), (2, 7), (3, 1)),5.3326670308221754e-05
u,tu = ((2, 7), (3, 1), (5, 13)),7.639657627896517e-05
u,tu = ((0, 13), (3, 1), (4, 7)),7.061396114047203e-05
u,tu = ((3, 1), (4, 7), (5, 13)),6.715660984547278e-06
u,tu = ((0, 13), (3, 1), (5, 7)),-7.19163195162311e-05
u,tu = ((1, 13), (3, 1), (5, 7)),-5.877204383453503e-06
u,tu = ((2, 13), (3, 1), (5, 7)),-6.291430303853657e-05
u,tu = ((3, 1), (4, 13), (5, 7)),-7.100643767248333e-06
u,tu = ((0, 7), (2, 13), (4, 1)),-8.062817107269948e-06
u,tu = ((0, 7), (4, 1), (5, 13)),-8.215503163644794e-05
u,tu = ((1, 7), (2, 13), (4, 1)),-6.872629869662996e-05
u,tu = ((1, 7), (3, 13), (4, 1)),-7.15056098007372e-05
u,tu = ((1, 7), (4, 1), (5, 13)),-5.762739484188201e-06
u,tu = ((0, 13), (2, 7), (4, 1)),-5.871324337373e-06
u,tu = ((1, 13), (2, 7), (4, 1)),-7.191629270529668e-05
u,tu = ((2, 7), (3, 13), (4, 1)),7.099349682430755e-06
u,tu = ((2, 7), (4, 1), (5, 13)),6.29168910321513e-05
u,tu = ((1, 13), (3, 7), (4, 1)),7.061479589519315e-05
u,tu = ((2, 13), (3, 7), (4, 1)),-6.716738403121094e-06
u,tu = ((0, 13), (4, 1), (5, 7)),5.333431340958486e-05
u,tu = ((1, 13), (4, 1), (5, 7)),7.307720626854726e-06
u,tu = ((2, 13), (4, 1), (5, 7)),-7.63942167336558e-05
u,tu = ((0, 7), (1, 13), (5, 1)),-0.0002595113514615272
u,tu = ((0, 7), (2, 13), (5, 1)),0.003370040411815194
u,tu = ((0, 7), (3, 13), (5, 1)),-2.8199637796882703e-05
u,tu = ((0, 7), (4, 13), (5, 1)),-0.0001526150632416867
u,tu = ((0, 13), (1, 7), (5, 1)),0.0002633598411596394
u,tu = ((1, 7), (2, 13), (5, 1)),-2.4950324381769963e-05
u,tu = ((1, 7), (3, 13), (5, 1)),-0.0001456496464564983
u,tu = ((1, 7), (4, 13), (5, 1)),-2.234967239713266e-05
u,tu = ((0, 13), (2, 7), (5, 1)),-0.0033667302788769615
u,tu = ((1, 13), (2, 7), (5, 1)),-0.00015496092872604357
u,tu = ((2, 7), (3, 13), (5, 1)),1.5262584507135673e-05
u,tu = ((2, 7), (4, 13), (5, 1)),0.00026620128202284804
u,tu = ((0, 13), (3, 7), (5, 1)),-2.947213613269671e-05
u,tu = ((1, 13), (3, 7), (5, 1)),0.00013369345321992608
u,tu = ((2, 13), (3, 7), (5, 1)),-1.654665941974481e-06
u,tu = ((3, 7), (4, 13), (5, 1)),2.5443092181084525e-06
u,tu = ((0, 13), (4, 7), (5, 1)),2.134590344510906e-05
u,tu = ((1, 13), (4, 7), (5, 1)),-2.2298435989071223e-05
u,tu = ((2, 13), (4, 7), (5, 1)),0.00027007062882341236
u,tu = ((3, 13), (4, 7), (5, 1)),-2.4862556957569782e-06
u,tu = ((0, 1), (1, 7), (2, 14)),0.00010474407584309897
u,tu = ((0, 1), (1, 7), (3, 14)),0.00010857231424673836
u,tu = ((0, 1), (1, 7), (4, 14)),2.3244064596266175e-05
u,tu = ((0, 1), (1, 7), (5, 14)),-9.722622046261447e-06
u,tu = ((0, 1), (1, 14), (2, 7)),-0.00010855340289100981
u,tu = ((0, 1), (2, 7), (3, 14)),-1.0882901258731247e-05
u,tu = ((0, 1), (2, 7), (4, 14)),-0.00021344779308300082
u,tu = ((0, 1), (2, 7), (5, 14)),9.479755850407953e-05
u,tu = ((0, 1), (1, 14), (3, 7)),-0.00010559304669677781
u,tu = ((0, 1), (2, 14), (3, 7)),1.0311056099360793e-05
u,tu = ((0, 1), (3, 7), (4, 14)),-2.8165081022026886e-06
u,tu = ((0, 1), (3, 7), (5, 14)),1.1462280834860142e-06
u,tu = ((0, 1), (1, 14), (4, 7)),-2.573798072291304e-05
u,tu = ((0, 1), (2, 14), (4, 7)),0.00022628814465192943
u,tu = ((0, 1), (3, 14), (4, 7)),3.258536386033986e-06
u,tu = ((0, 1), (4, 7), (5, 14)),0.0025885498859888594
u,tu = ((0, 1), (1, 14), (5, 7)),1.1088881644244865e-05
u,tu = ((0, 1), (2, 14), (5, 7)),-0.00011363448381622156
u,tu = ((0, 1), (3, 14), (5, 7)),-1.3381207196827975e-06
u,tu = ((0, 1), (4, 14), (5, 7)),-0.0026223718414843398
u,tu = ((0, 7), (1, 1), (2, 14)),-9.756662680627023e-06
u,tu = ((0, 7), (1, 1), (3, 14)),2.3192399993768228e-05
u,tu = ((0, 7), (1, 1), (4, 14)),0.00010857299008636499
u,tu = ((0, 7), (1, 1), (5, 14)),0.00010475409308445241
u,tu = ((0, 14), (1, 1), (2, 7)),1.1050888578102462e-05
u,tu = ((1, 1), (2, 7), (3, 14)),0.0026224655670153783
u,tu = ((1, 1), (2, 7), (4, 14)),1.3252641545722114e-06
u,tu = ((1, 1), (2, 7), (5, 14)),0.00011361681881366832
u,tu = ((0, 14), (1, 1), (3, 7)),-2.5785038095685455e-05
u,tu = ((1, 1), (2, 14), (3, 7)),-0.0025884588069878273
u,tu = ((1, 1), (3, 7), (4, 14)),-3.2562096429401264e-06
u,tu = ((1, 1), (3, 7), (5, 14)),-0.00022629115775442537
u,tu = ((0, 14), (1, 1), (4, 7)),-0.00010559713151705508
u,tu = ((1, 1), (2, 14), (4, 7)),-1.158640053159942e-06
u,tu = ((1, 1), (3, 14), (4, 7)),2.8276757806931693e-06
u,tu = ((1, 1), (4, 7), (5, 14)),-1.0309472009908478e-05
u,tu = ((0, 14), (1, 1), (5, 7)),-0.00010854802864380183
u,tu = ((1, 1), (2, 14), (5, 7)),-9.480317530898897e-05
u,tu = ((1, 1), (3, 14), (5, 7)),0.00021345034913737053
u,tu = ((1, 1), (4, 14), (5, 7)),1.0884917517833951e-05
u,tu = ((0, 7), (1, 14), (2, 1)),-0.00020871140800324405
u,tu = ((0, 7), (2, 1), (3, 14)),1.953440294735319e-05
u,tu = ((0, 7), (2, 1), (4, 14)),0.00011062376963300274
u,tu = ((0, 7), (2, 1), (5, 14)),9.438539486569965e-05
u,tu = ((0, 14), (1, 7), (2, 1)),0.00022131187620889675
u,tu = ((1, 7), (2, 1), (3, 14)),0.00011276452033321943
u,tu = ((1, 7), (2, 1), (4, 14)),2.5754993588394582e-05
u,tu = ((1, 7), (2, 1), (5, 14)),0.002514240851358146
u,tu = ((0, 14), (2, 1), (3, 7)),-1.9663162531508862e-05
u,tu = ((1, 14), (2, 1), (3, 7)),-9.43033784271142e-05
u,tu = ((2, 1), (3, 7), (4, 14)),-2.3100092860890112e-06
u,tu = ((2, 1), (3, 7), (5, 14)),-0.00021449643559412574
u,tu = ((0, 14), (2, 1), (4, 7)),-0.00010488543674484441
u,tu = ((1, 14), (2, 1), (4, 7)),-2.333413125112249e-05
u,tu = ((2, 1), (3, 14), (4, 7)),2.2061089058839055e-06
u,tu = ((2, 1), (4, 7), (5, 14)),-9.92604200120445e-06
u,tu = ((0, 14), (2, 1), (5, 7)),-0.0001131823792239241
u,tu = ((1, 14), (2, 1), (5, 7)),-0.002507360700293208
u,tu = ((2, 1), (3, 14), (5, 7)),0.00022560406368123833
u,tu = ((2, 1), (4, 14), (5, 7)),1.138763548570971e-05
u,tu = ((0, 7), (2, 14), (3, 1)),-4.963883811479295e-06
u,tu = ((0, 7), (3, 1), (4, 14)),5.456643305863479e-05
u,tu = ((0, 7), (3, 1), (5, 14)),5.249073026480235e-05
u,tu = ((1, 7), (2, 14), (3, 1)),5.781530580058106e-05
u,tu = ((1, 7), (3, 1), (5, 14)),-5.90456493422974e-06
u,tu = ((0, 14), (2, 7), (3, 1)),5.453656401874992e-06
u,tu = ((1, 14), (2, 7), (3, 1)),-3.793768556824763e-05
u,tu = ((2, 7), (3, 1), (5, 14)),5.6306018156378574e-05
u,tu = ((0, 14), (3, 1), (4, 7)),-5.3172819580472104e-05
u,tu = ((3, 1), (4, 7), (5, 14)),-5.150606306119844e-06
u,tu = ((0, 14), (3, 1), (5, 7)),-5.36227005867158e-05
u,tu = ((1, 14), (3, 1), (5, 7)),4.436538407513009e-06
u,tu = ((2, 14), (3, 1), (5, 7)),-5.223534551574812e-05
u,tu = ((3, 1), (4, 14), (5, 7)),5.362479040860455e-06
u,tu = ((0, 7), (2, 14), (4, 1)),-5.9094793311242415e-06
u,tu = ((0, 7), (4, 1), (5, 14)),5.783998738451262e-05
u,tu = ((1, 7), (2, 14), (4, 1)),5.24882965077355e-05
u,tu = ((1, 7), (3, 14), (4, 1)),5.456733230416753e-05
u,tu = ((1, 7), (4, 1), (5, 14)),-4.963451627021085e-06
u,tu = ((0, 14), (2, 7), (4, 1)),4.431690039814799e-06
u,tu = ((1, 14), (2, 7), (4, 1)),-5.3625208257990465e-05
u,tu = ((2, 7), (3, 14), (4, 1)),-5.3605869579536845e-06
u,tu = ((2, 7), (4, 1), (5, 14)),5.2234293644342384e-05
u,tu = ((1, 14), (3, 7), (4, 1)),-5.31722064531458e-05
u,tu = ((2, 14), (3, 7), (4, 1)),5.15267175826123e-06
u,tu = ((0, 14), (4, 1), (5, 7)),-3.792463252157855e-05
u,tu = ((1, 14), (4, 1), (5, 7)),5.4539481848898825e-06
u,tu = ((2, 14), (4, 1), (5, 7)),-5.630767404931919e-05
u,tu = ((0, 7), (1, 14), (5, 1)),-0.0002213193708309993
u,tu = ((0, 7), (2, 14), (5, 1)),0.0025143490624466875
u,tu = ((0, 7), (3, 14), (5, 1)),2.57563006194454e-05
u,tu = ((0, 7), (4, 14), (5, 1)),0.00011273345697217216
u,tu = ((0, 14), (1, 7), (5, 1)),0.0002087034335942992
u,tu = ((1, 7), (2, 14), (5, 1)),9.437669976519951e-05
u,tu = ((1, 7), (3, 14), (5, 1)),0.0001106256496865213
u,tu = ((1, 7), (4, 14), (5, 1)),1.954052248851485e-05
u,tu = ((0, 14), (2, 7), (5, 1)),-0.0025072645908841484
u,tu = ((1, 14), (2, 7), (5, 1)),-0.0001132018139016578
u,tu = ((2, 7), (3, 14), (5, 1)),-1.1392671836481662e-05
u,tu = ((2, 7), (4, 14), (5, 1)),-0.00022567132252768733
u,tu = ((0, 14), (3, 7), (5, 1)),-2.3335873457329952e-05
u,tu = ((1, 14), (3, 7), (5, 1)),-0.00010488264231119774
u,tu = ((2, 14), (3, 7), (5, 1)),9.921385474959099e-06
u,tu = ((3, 7), (4, 14), (5, 1)),-2.2093400990982673e-06
u,tu = ((0, 14), (4, 7), (5, 1)),-9.431868004279187e-05
u,tu = ((1, 14), (4, 7), (5, 1)),-1.9654557045287534e-05
u,tu = ((2, 14), (4, 7), (5, 1)),0.00021441235303576605
u,tu = ((3, 14), (4, 7), (5, 1)),2.3067538022882415e-06
u,tu = ((0, 1), (1, 8), (2, 13)),-0.00010189690017703727
u,tu = ((0, 1), (1, 8), (3, 13)),0.00010745529518431369
u,tu = ((0, 1), (1, 8), (4, 13)),-2.826823269684135e-05
u,tu = ((0, 1), (1, 8), (5, 13)),-2.0611488911913486e-06
u,tu = ((0, 1), (1, 13), (2, 8)),0.00010746331230564685
u,tu = ((0, 1), (2, 8), (3, 13)),-1.1237307205975556e-05
u,tu = ((0, 1), (2, 8), (4, 13)),0.0002466370695964237
u,tu = ((0, 1), (2, 8), (5, 13)),2.6573523717655405e-05
u,tu = ((0, 1), (1, 13), (3, 8)),-0.00010707623703061286
u,tu = ((0, 1), (2, 13), (3, 8)),1.0656446441314737e-05
u,tu = ((0, 1), (3, 8), (4, 13)),-3.5885488936883797e-06
u,tu = ((0, 1), (1, 13), (4, 8)),2.4644446116862286e-05
u,tu = ((0, 1), (2, 13), (4, 8)),-0.0002309266967765302
u,tu = ((0, 1), (3, 13), (4, 8)),2.996549609173407e-06
u,tu = ((0, 1), (4, 8), (5, 13)),0.0028059126932621116
u,tu = ((0, 1), (1, 13), (5, 8)),9.830906755631583e-06
u,tu = ((0, 1), (2, 13), (5, 8)),-0.00010154848727797484
u,tu = ((0, 1), (3, 13), (5, 8)),1.0636601842165023e-06
u,tu = ((0, 1), (4, 13), (5, 8)),-0.002782833353239802
u,tu = ((0, 8), (1, 1), (2, 13)),-2.0626418022316256e-06
u,tu = ((0, 8), (1, 1), (3, 13)),-2.826179749299079e-05
u,tu = ((0, 8), (1, 1), (4, 13)),0.00010745591214416735
u,tu = ((0, 8), (1, 1), (5, 13)),-0.00010190524554518607
u,tu = ((0, 13), (1, 1), (2, 8)),9.836759746924063e-06
u,tu = ((1, 1), (2, 8), (3, 13)),0.002782891181491961
u,tu = ((1, 1), (2, 8), (4, 13)),-1.0615840357662518e-06
u,tu = ((1, 1), (2, 8), (5, 13)),0.00010154513617437614
u,tu = ((0, 13), (1, 1), (3, 8)),2.4654974781385467e-05
u,tu = ((1, 1), (2, 13), (3, 8)),-0.002805855200335072
u,tu = ((1, 1), (3, 8), (4, 13)),-2.9942606538409836e-06
u,tu = ((1, 1), (3, 8), (5, 13)),0.000230930457001861
u,tu = ((0, 13), (1, 1), (4, 8)),-0.00010708018295633916
u,tu = ((1, 1), (3, 13), (4, 8)),3.591602701672398e-06
u,tu = ((1, 1), (4, 8), (5, 13)),-1.0655790989548173e-05
u,tu = ((0, 13), (1, 1), (5, 8)),0.00010746088164175325
u,tu = ((1, 1), (2, 13), (5, 8)),-2.6590046458328305e-05
u,tu = ((1, 1), (3, 13), (5, 8)),-0.0002466292378914669
u,tu = ((1, 1), (4, 13), (5, 8)),1.1238002309370848e-05
u,tu = ((0, 8), (1, 13), (2, 1)),-0.00024150262333957548
u,tu = ((0, 8), (2, 1), (3, 13)),-2.094441263084878e-05
u,tu = ((0, 8), (2, 1), (4, 13)),0.00010806521759913166
u,tu = ((0, 8), (2, 1), (5, 13)),-2.584126720227083e-05
u,tu = ((0, 13), (1, 8), (2, 1)),0.0002257096075756289
u,tu = ((1, 8), (2, 1), (3, 13)),0.00010078218385571403
u,tu = ((1, 8), (2, 1), (4, 13)),-2.480467319006751e-05
u,tu = ((1, 8), (2, 1), (5, 13)),0.0027067903106511573
u,tu = ((0, 13), (2, 1), (3, 8)),2.084117100085805e-05
u,tu = ((1, 13), (2, 1), (3, 8)),-2.379360624820026e-05
u,tu = ((2, 1), (3, 8), (4, 13)),-2.3128150156603474e-06
u,tu = ((2, 1), (3, 8), (5, 13)),0.00024714497098311854
u,tu = ((0, 13), (2, 1), (4, 8)),-0.00010329252326346825
u,tu = ((1, 13), (2, 1), (4, 8)),2.8435774505861214e-05
u,tu = ((2, 1), (3, 13), (4, 8)),2.4855532783244044e-06
u,tu = ((2, 1), (4, 8), (5, 13)),-2.1196469421144293e-06
u,tu = ((0, 13), (2, 1), (5, 8)),0.0001012425729955547
u,tu = ((1, 13), (2, 1), (5, 8)),-0.002713175146157247
u,tu = ((2, 1), (3, 13), (5, 8)),-0.00023221529211575587
u,tu = ((2, 1), (4, 13), (5, 8)),1.005355004696821e-05
u,tu = ((0, 8), (2, 13), (3, 1)),-4.83341957999914e-06
u,tu = ((0, 8), (3, 1), (4, 13)),5.399431316742673e-05
u,tu = ((0, 8), (3, 1), (5, 13)),-5.220331343954595e-05
u,tu = ((1, 8), (2, 13), (3, 1)),-4.446687070817592e-05
u,tu = ((1, 8), (3, 1), (5, 13)),-4.09501749002329e-06
u,tu = ((0, 13), (2, 8), (3, 1)),5.541631870320961e-06
u,tu = ((1, 13), (2, 8), (3, 1)),-3.236590349906987e-05
u,tu = ((2, 8), (3, 1), (5, 13)),5.473456856968984e-05
u,tu = ((0, 13), (3, 1), (4, 8)),-5.3960299566008005e-05
u,tu = ((3, 1), (4, 8), (5, 13)),-5.4868597834026204e-06
u,tu = ((0, 13), (3, 1), (5, 8)),5.353787551630397e-05
u,tu = ((1, 13), (3, 1), (5, 8)),-3.838860924169858e-06
u,tu = ((2, 13), (3, 1), (5, 8)),-4.889996940079892e-05
u,tu = ((3, 1), (4, 13), (5, 8)),5.620781656621761e-06
u,tu = ((0, 8), (2, 13), (4, 1)),-4.1022440510451385e-06
u,tu = ((0, 8), (4, 1), (5, 13)),-4.445323772594646e-05
u,tu = ((1, 8), (2, 13), (4, 1)),-5.220071078311786e-05
u,tu = ((1, 8), (3, 13), (4, 1)),5.399528221413771e-05
u,tu = ((1, 8), (4, 1), (5, 13)),-4.832679143966632e-06
u,tu = ((0, 13), (2, 8), (4, 1)),-3.844983362214942e-06
u,tu = ((1, 13), (2, 8), (4, 1)),5.354050408797143e-05
u,tu = ((2, 8), (3, 13), (4, 1)),-5.620310635856532e-06
u,tu = ((2, 8), (4, 1), (5, 13)),4.8898430303752704e-05
u,tu = ((1, 13), (3, 8), (4, 1)),-5.395970924877031e-05
u,tu = ((2, 13), (3, 8), (4, 1)),5.487533272891646e-06
u,tu = ((0, 13), (4, 1), (5, 8)),-3.2373781259437545e-05
u,tu = ((1, 13), (4, 1), (5, 8)),5.542899210258862e-06
u,tu = ((2, 13), (4, 1), (5, 8)),-5.473679555566662e-05
u,tu = ((0, 8), (1, 13), (5, 1)),-0.0002257085387739959
u,tu = ((0, 8), (2, 13), (5, 1)),0.0027068233753127923
u,tu = ((0, 8), (3, 13), (5, 1)),-2.480522715199839e-05
u,tu = ((0, 8), (4, 13), (5, 1)),0.00010079958763956031
u,tu = ((0, 13), (1, 8), (5, 1)),0.00024150661994726418
u,tu = ((1, 8), (2, 13), (5, 1)),-2.581777542845963e-05
u,tu = ((1, 8), (3, 13), (5, 1)),0.00010806678570515318
u,tu = ((1, 8), (4, 13), (5, 1)),-2.094882736856836e-05
u,tu = ((0, 13), (2, 8), (5, 1)),-0.0027131480776775565
u,tu = ((1, 13), (2, 8), (5, 1)),0.00010124744587452864
u,tu = ((2, 8), (3, 13), (5, 1)),-1.0056563164604223e-05
u,tu = ((2, 8), (4, 13), (5, 1)),0.00023225387963573776
u,tu = ((0, 13), (3, 8), (5, 1)),2.8440820585600977e-05
u,tu = ((1, 13), (3, 8), (5, 1)),-0.00010328992448711016
u,tu = ((2, 13), (3, 8), (5, 1)),2.1150060951008205e-06
u,tu = ((3, 8), (4, 13), (5, 1)),-2.4864620127090022e-06
u,tu = ((0, 13), (4, 8), (5, 1)),-2.3806651404407068e-05
u,tu = ((1, 13), (4, 8), (5, 1)),2.0837750192892267e-05
u,tu = ((2, 13), (4, 8), (5, 1)),-0.0002471072976211316
u,tu = ((3, 13), (4, 8), (5, 1)),2.312558136242508e-06
u,tu = ((0, 1), (1, 8), (2, 14)),5.829020305747876e-05
u,tu = ((0, 1), (1, 8), (3, 14)),-5.9644824812730824e-05
u,tu = ((0, 1), (1, 8), (4, 14)),2.2409637081018665e-05
u,tu = ((0, 1), (1, 8), (5, 14)),-7.650669682193806e-06
u,tu = ((0, 1), (1, 14), (2, 8)),5.8309704325709646e-05
u,tu = ((0, 1), (2, 8), (3, 14)),8.129285065577808e-06
u,tu = ((0, 1), (2, 8), (4, 14)),-0.00019469487274865498
u,tu = ((0, 1), (2, 8), (5, 14)),6.108974935351393e-05
u,tu = ((0, 1), (1, 14), (3, 8)),5.94886492002053e-05
u,tu = ((0, 1), (2, 14), (3, 8)),-8.093968168054996e-06
u,tu = ((0, 1), (3, 8), (4, 14)),2.850185037417569e-06
u,tu = ((0, 1), (1, 14), (4, 8)),2.2470167756706123e-05
u,tu = ((0, 1), (2, 14), (4, 8)),-0.0001958706848187283
u,tu = ((0, 1), (3, 14), (4, 8)),-2.8554651815482203e-06
u,tu = ((0, 1), (4, 8), (5, 14)),-0.0021137162583391993
u,tu = ((0, 1), (1, 14), (5, 8)),6.231390086674215e-06
u,tu = ((0, 1), (2, 14), (5, 8)),-4.8709686604289866e-05
u,tu = ((0, 1), (4, 14), (5, 8)),0.0021166122154962943
u,tu = ((0, 8), (1, 1), (2, 14)),-7.65303246023212e-06
u,tu = ((0, 8), (1, 1), (3, 14)),2.240415657861018e-05
u,tu = ((0, 8), (1, 1), (4, 14)),-5.964710892180312e-05
u,tu = ((0, 8), (1, 1), (5, 14)),5.8291759119457285e-05
u,tu = ((0, 14), (1, 1), (2, 8)),6.259691733365875e-06
u,tu = ((1, 1), (2, 8), (3, 14)),-0.002116661450506265
u,tu = ((1, 1), (2, 8), (5, 14)),4.8718631604610474e-05
u,tu = ((0, 14), (1, 1), (3, 8)),2.250746430034715e-05
u,tu = ((1, 1), (2, 14), (3, 8)),0.002113645895695555
u,tu = ((1, 1), (3, 8), (4, 14)),2.8504253390675924e-06
u,tu = ((1, 1), (3, 8), (5, 14)),0.00019587294084643406
u,tu = ((0, 14), (1, 1), (4, 8)),5.9489154241867026e-05
u,tu = ((1, 1), (3, 14), (4, 8)),-2.852801954443904e-06
u,tu = ((1, 1), (4, 8), (5, 14)),8.092599489987467e-06
u,tu = ((0, 14), (1, 1), (5, 8)),5.831401114227917e-05
u,tu = ((1, 1), (2, 14), (5, 8)),-6.108804966798836e-05
u,tu = ((1, 1), (3, 14), (5, 8)),0.00019469008858024402
u,tu = ((1, 1), (4, 14), (5, 8)),-8.131598722646987e-06
u,tu = ((0, 8), (1, 14), (2, 1)),-0.00019034768362766955
u,tu = ((0, 8), (2, 1), (3, 14)),1.8229495535736516e-05
u,tu = ((0, 8), (2, 1), (4, 14)),-5.955745404205463e-05
u,tu = ((0, 8), (2, 1), (5, 14)),6.073439979165842e-05
u,tu = ((0, 14), (1, 8), (2, 1)),0.00019194107783601435
u,tu = ((1, 8), (2, 1), (3, 14)),-5.042609267139148e-05
u,tu = ((1, 8), (2, 1), (4, 14)),2.2497154882871856e-05
u,tu = ((1, 8), (2, 1), (5, 14)),0.0020548582823081236
u,tu = ((0, 14), (2, 1), (3, 8)),1.8273923193103438e-05
u,tu = ((1, 14), (2, 1), (3, 8)),6.274122498727496e-05
u,tu = ((2, 1), (3, 8), (4, 14)),2.1437359102486287e-06
u,tu = ((2, 1), (3, 8), (5, 14)),0.00019508026810697738
u,tu = ((0, 14), (2, 1), (4, 8)),5.9532026105831505e-05
u,tu = ((1, 14), (2, 1), (4, 8)),2.247835119376375e-05
u,tu = ((2, 1), (3, 14), (4, 8)),-2.1596356231453858e-06
u,tu = ((2, 1), (4, 8), (5, 14)),7.851638675706637e-06
u,tu = ((0, 14), (2, 1), (5, 8)),4.851277905709643e-05
u,tu = ((1, 14), (2, 1), (5, 8)),-0.0020559178275317766
u,tu = ((2, 1), (3, 14), (5, 8)),0.00019630747816878552
u,tu = ((2, 1), (4, 14), (5, 8)),-6.5012884928874314e-06
u,tu = ((0, 8), (2, 14), (3, 1)),-3.93593213065417e-06
u,tu = ((0, 8), (3, 1), (4, 14)),-2.9866234699500227e-05
u,tu = ((0, 8), (3, 1), (5, 14)),2.8922188062012962e-05
u,tu = ((1, 8), (2, 14), (3, 1)),1.7452583806712058e-05
u,tu = ((1, 8), (3, 1), (5, 14)),-2.042336911893206e-06
u,tu = ((0, 14), (2, 8), (3, 1)),3.970851002805806e-06
u,tu = ((1, 14), (2, 8), (3, 1)),3.0941516373174153e-05
u,tu = ((2, 8), (3, 1), (5, 14)),2.935505697151151e-05
u,tu = ((0, 14), (3, 1), (4, 8)),2.979830827344994e-05
u,tu = ((3, 1), (4, 8), (5, 14)),4.029821352882139e-06
u,tu = ((0, 14), (3, 1), (5, 8)),2.906113752440372e-05
u,tu = ((1, 14), (3, 1), (5, 8)),3.581428647913764e-06
u,tu = ((2, 14), (3, 1), (5, 8)),-2.9435687539330687e-05
u,tu = ((3, 1), (4, 14), (5, 8)),-4.067401432643308e-06
u,tu = ((0, 8), (2, 14), (4, 1)),-2.0391955038237186e-06
u,tu = ((0, 8), (4, 1), (5, 14)),1.743854048775556e-05
u,tu = ((1, 8), (2, 14), (4, 1)),2.8922134089587722e-05
u,tu = ((1, 8), (3, 14), (4, 1)),-2.9865945100191764e-05
u,tu = ((1, 8), (4, 1), (5, 14)),-3.936698438860854e-06
u,tu = ((0, 14), (2, 8), (4, 1)),3.5858841199539183e-06
u,tu = ((1, 14), (2, 8), (4, 1)),2.9061161028964297e-05
u,tu = ((2, 8), (3, 14), (4, 1)),4.0673101838399714e-06
u,tu = ((2, 8), (4, 1), (5, 14)),2.9437411152448008e-05
u,tu = ((1, 14), (3, 8), (4, 1)),2.9798750825350594e-05
u,tu = ((2, 14), (3, 8), (4, 1)),-4.030475073394558e-06
u,tu = ((0, 14), (4, 1), (5, 8)),3.093437964400217e-05
u,tu = ((1, 14), (4, 1), (5, 8)),3.970647112240049e-06
u,tu = ((2, 14), (4, 1), (5, 8)),-2.9354011158341456e-05
u,tu = ((0, 8), (1, 14), (5, 1)),-0.00019194219198082407
u,tu = ((0, 8), (2, 14), (5, 1)),0.002054909823984067
u,tu = ((0, 8), (3, 14), (5, 1)),2.2497869253309084e-05
u,tu = ((0, 8), (4, 14), (5, 1)),-5.0444288723825894e-05
u,tu = ((0, 14), (1, 8), (5, 1)),0.00019034515687655444
u,tu = ((1, 8), (2, 14), (5, 1)),6.073936820811762e-05
u,tu = ((1, 8), (3, 14), (5, 1)),-5.955561557851739e-05
u,tu = ((1, 8), (4, 14), (5, 1)),1.8236100088807298e-05
u,tu = ((0, 14), (2, 8), (5, 1)),-0.0020558609097498324
u,tu = ((1, 14), (2, 8), (5, 1)),4.8509178658464324e-05
u,tu = ((2, 8), (3, 14), (5, 1)),6.49474807015395e-06
u,tu = ((2, 8), (4, 14), (5, 1)),-0.00019636488397109758
u,tu = ((0, 14), (3, 8), (5, 1)),2.2481338538843372e-05
u,tu = ((1, 14), (3, 8), (5, 1)),5.953292576112736e-05
u,tu = ((2, 14), (3, 8), (5, 1)),-7.855557879497901e-06
u,tu = ((3, 8), (4, 14), (5, 1)),2.1606536918088366e-06
u,tu = ((0, 14), (4, 8), (5, 1)),6.274873163623115e-05
u,tu = ((1, 14), (4, 8), (5, 1)),1.8270918114804783e-05
u,tu = ((2, 14), (4, 8), (5, 1)),-0.00019505283072945002
u,tu = ((3, 14), (4, 8), (5, 1)),-2.1435021734247875e-06
u,tu = ((0, 1), (1, 9), (2, 11)),0.00013316947859846084
u,tu = ((0, 1), (1, 9), (3, 11)),0.00014200604707205298
u,tu = ((0, 1), (1, 9), (4, 11)),2.9296234170704673e-05
u,tu = ((0, 1), (1, 9), (5, 11)),1.3916375530785868e-06
u,tu = ((0, 1), (1, 11), (2, 9)),0.00014560229381320425
u,tu = ((0, 1), (2, 9), (3, 11)),-1.4392096727491682e-05
u,tu = ((0, 1), (2, 9), (4, 11)),-0.0002693399278660692
u,tu = ((0, 1), (2, 9), (5, 11)),-2.5244863122662383e-05
u,tu = ((0, 1), (1, 11), (3, 9)),-0.00013963416726837515
u,tu = ((0, 1), (2, 11), (3, 9)),1.296332274811152e-05
u,tu = ((0, 1), (3, 9), (4, 11)),-3.536050641391594e-06
u,tu = ((0, 1), (1, 11), (4, 9)),2.808869305403588e-05
u,tu = ((0, 1), (2, 11), (4, 9)),-0.0002669791307809627
u,tu = ((0, 1), (3, 11), (4, 9)),3.40108897097939e-06
u,tu = ((0, 1), (4, 9), (5, 11)),0.0035187120904828077
u,tu = ((0, 1), (1, 11), (5, 9)),-1.4799803254487115e-05
u,tu = ((0, 1), (2, 11), (5, 9)),0.00015514049507537437
u,tu = ((0, 1), (3, 11), (5, 9)),-1.6821615470010617e-06
u,tu = ((0, 1), (4, 11), (5, 9)),-0.00352600199237457
u,tu = ((0, 9), (1, 1), (2, 11)),1.3578315754655636e-06
u,tu = ((0, 9), (1, 1), (3, 11)),2.92356772695587e-05
u,tu = ((0, 9), (1, 1), (4, 11)),0.000142011016942942
u,tu = ((0, 9), (1, 1), (5, 11)),0.00013316989650801383
u,tu = ((0, 11), (1, 1), (2, 9)),-1.4794699996169787e-05
u,tu = ((1, 1), (2, 9), (3, 11)),0.0035260893136372434
u,tu = ((1, 1), (2, 9), (4, 11)),1.6856294285068296e-06
u,tu = ((1, 1), (2, 9), (5, 11)),-0.00015513910073740233
u,tu = ((0, 11), (1, 1), (3, 9)),2.810271717851268e-05
u,tu = ((1, 1), (2, 11), (3, 9)),-0.003518648715698349
u,tu = ((1, 1), (3, 9), (4, 11)),-3.3978088662155573e-06
u,tu = ((1, 1), (3, 9), (5, 11)),0.0002669841860327226
u,tu = ((0, 11), (1, 1), (4, 9)),-0.00013963564768775712
u,tu = ((1, 1), (3, 11), (4, 9)),3.554329431645244e-06
u,tu = ((1, 1), (4, 9), (5, 11)),-1.2958888053911749e-05
u,tu = ((0, 11), (1, 1), (5, 9)),0.00014560675381998186
u,tu = ((1, 1), (2, 11), (5, 9)),2.5252625330093528e-05
u,tu = ((1, 1), (3, 11), (5, 9)),0.00026934107272602126
u,tu = ((1, 1), (4, 11), (5, 9)),1.4395882641718659e-05
u,tu = ((0, 9), (1, 11), (2, 1)),0.00026336205801072015
u,tu = ((0, 9), (2, 1), (3, 11)),2.234532070261797e-05
u,tu = ((0, 9), (2, 1), (4, 11)),0.00014565221032709617
u,tu = ((0, 9), (2, 1), (5, 11)),2.4958022067219844e-05
u,tu = ((0, 11), (1, 9), (2, 1)),-0.0002595067373003239
u,tu = ((1, 9), (2, 1), (3, 11)),0.00015264717861545753
u,tu = ((1, 9), (2, 1), (4, 11)),2.8198044288334373e-05
u,tu = ((1, 9), (2, 1), (5, 11)),-0.003369970037799925
u,tu = ((0, 11), (2, 1), (3, 9)),2.2309303475848624e-05
u,tu = ((1, 11), (2, 1), (3, 9)),-2.133354248651896e-05
u,tu = ((2, 1), (3, 9), (4, 11)),-2.486884171051324e-06
u,tu = ((2, 1), (3, 9), (5, 11)),0.00027018110056277114
u,tu = ((0, 11), (2, 1), (4, 9)),-0.0001336920250937204
u,tu = ((1, 11), (2, 1), (4, 9)),2.9468522176816496e-05
u,tu = ((2, 1), (3, 11), (4, 9)),2.5439503802047093e-06
u,tu = ((2, 1), (4, 9), (5, 11)),-1.6439580672277397e-06
u,tu = ((0, 11), (2, 1), (5, 9)),0.00015494505937262268
u,tu = ((1, 11), (2, 1), (5, 9)),0.0033667726020696403
u,tu = ((2, 1), (3, 11), (5, 9)),0.00026615507583968974
u,tu = ((2, 1), (4, 11), (5, 9)),1.5269098542900364e-05
u,tu = ((0, 9), (2, 11), (3, 1)),5.7619669062917945e-06
u,tu = ((0, 9), (3, 1), (4, 11)),7.150623397615993e-05
u,tu = ((0, 9), (3, 1), (5, 11)),6.872626343708219e-05
u,tu = ((1, 9), (2, 11), (3, 1)),8.2133495958728e-05
u,tu = ((1, 9), (3, 1), (5, 11)),8.071480939720157e-06
u,tu = ((0, 11), (2, 9), (3, 1)),-7.309315216038655e-06
u,tu = ((1, 11), (2, 9), (3, 1)),-5.332667030820881e-05
u,tu = ((2, 9), (3, 1), (5, 11)),-7.639657627895551e-05
u,tu = ((0, 11), (3, 1), (4, 9)),-7.061396114046494e-05
u,tu = ((3, 1), (4, 9), (5, 11)),-6.71566098454726e-06
u,tu = ((0, 11), (3, 1), (5, 9)),7.191631951623227e-05
u,tu = ((1, 11), (3, 1), (5, 9)),5.877204383454525e-06
u,tu = ((2, 11), (3, 1), (5, 9)),6.291430303855279e-05
u,tu = ((3, 1), (4, 11), (5, 9)),7.100643767247527e-06
u,tu = ((0, 9), (2, 11), (4, 1)),8.062817107271175e-06
u,tu = ((0, 9), (4, 1), (5, 11)),8.215503163645367e-05
u,tu = ((1, 9), (2, 11), (4, 1)),6.872629869663521e-05
u,tu = ((1, 9), (3, 11), (4, 1)),7.15056098007361e-05
u,tu = ((1, 9), (4, 1), (5, 11)),5.7627394841868965e-06
u,tu = ((0, 11), (2, 9), (4, 1)),5.871324337372586e-06
u,tu = ((1, 11), (2, 9), (4, 1)),7.191629270529455e-05
u,tu = ((2, 9), (3, 11), (4, 1)),-7.09934968243104e-06
u,tu = ((2, 9), (4, 1), (5, 11)),-6.291689103214792e-05
u,tu = ((1, 11), (3, 9), (4, 1)),-7.061479589520663e-05
u,tu = ((2, 11), (3, 9), (4, 1)),6.716738403120709e-06
u,tu = ((0, 11), (4, 1), (5, 9)),-5.333431340958295e-05
u,tu = ((1, 11), (4, 1), (5, 9)),-7.307720626854783e-06
u,tu = ((2, 11), (4, 1), (5, 9)),7.639421673364985e-05
u,tu = ((0, 9), (1, 11), (5, 1)),0.00025951135146153265
u,tu = ((0, 9), (2, 11), (5, 1)),-0.0033700404118153036
u,tu = ((0, 9), (3, 11), (5, 1)),2.8199637796882605e-05
u,tu = ((0, 9), (4, 11), (5, 1)),0.00015261506324169415
u,tu = ((0, 11), (1, 9), (5, 1)),-0.0002633598411596328
u,tu = ((1, 9), (2, 11), (5, 1)),2.4950324381776987e-05
u,tu = ((1, 9), (3, 11), (5, 1)),0.00014564964645649684
u,tu = ((1, 9), (4, 11), (5, 1)),2.2349672397132567e-05
u,tu = ((0, 11), (2, 9), (5, 1)),0.0033667302788768427
u,tu = ((1, 11), (2, 9), (5, 1)),0.00015496092872603826
u,tu = ((2, 9), (3, 11), (5, 1)),-1.526258450713472e-05
u,tu = ((2, 9), (4, 11), (5, 1)),-0.000266201282022843
u,tu = ((0, 11), (3, 9), (5, 1)),2.947213613269719e-05
u,tu = ((1, 11), (3, 9), (5, 1)),-0.0001336934532199274
u,tu = ((2, 11), (3, 9), (5, 1)),1.6546659419754159e-06
u,tu = ((3, 9), (4, 11), (5, 1)),-2.544309218108544e-06
u,tu = ((0, 11), (4, 9), (5, 1)),-2.1345903445103623e-05
u,tu = ((1, 11), (4, 9), (5, 1)),2.2298435989071376e-05
u,tu = ((2, 11), (4, 9), (5, 1)),-0.000270070628823416
u,tu = ((3, 11), (4, 9), (5, 1)),2.4862556957569304e-06
u,tu = ((0, 1), (1, 9), (2, 12)),-0.00010474407584309748
u,tu = ((0, 1), (1, 9), (3, 12)),-0.00010857231424673496
u,tu = ((0, 1), (1, 9), (4, 12)),-2.324406459626587e-05
u,tu = ((0, 1), (1, 9), (5, 12)),9.722622046262147e-06
u,tu = ((0, 1), (1, 12), (2, 9)),0.00010855340289100806
u,tu = ((0, 1), (2, 9), (3, 12)),1.0882901258731057e-05
u,tu = ((0, 1), (2, 9), (4, 12)),0.0002134477930829977
u,tu = ((0, 1), (2, 9), (5, 12)),-9.47975585040756e-05
u,tu = ((0, 1), (1, 12), (3, 9)),0.00010559304669677565
u,tu = ((0, 1), (2, 12), (3, 9)),-1.0311056099361329e-05
u,tu = ((0, 1), (3, 9), (4, 12)),2.8165081022027712e-06
u,tu = ((0, 1), (3, 9), (5, 12)),-1.1462280834859363e-06
u,tu = ((0, 1), (1, 12), (4, 9)),2.57379807229129e-05
u,tu = ((0, 1), (2, 12), (4, 9)),-0.00022628814465192726
u,tu = ((0, 1), (3, 12), (4, 9)),-3.258536386033922e-06
u,tu = ((0, 1), (4, 9), (5, 12)),-0.0025885498859888065
u,tu = ((0, 1), (1, 12), (5, 9)),-1.1088881644244218e-05
u,tu = ((0, 1), (2, 12), (5, 9)),0.00011363448381622623
u,tu = ((0, 1), (3, 12), (5, 9)),1.3381207196828899e-06
u,tu = ((0, 1), (4, 12), (5, 9)),0.0026223718414843692
u,tu = ((0, 9), (1, 1), (2, 12)),9.756662680627584e-06
u,tu = ((0, 9), (1, 1), (3, 12)),-2.3192399993768123e-05
u,tu = ((0, 9), (1, 1), (4, 12)),-0.0001085729900863671
u,tu = ((0, 9), (1, 1), (5, 12)),-0.00010475409308444416
u,tu = ((0, 12), (1, 1), (2, 9)),-1.1050888578103022e-05
u,tu = ((1, 1), (2, 9), (3, 12)),-0.0026224655670153106
u,tu = ((1, 1), (2, 9), (4, 12)),-1.3252641545723565e-06
u,tu = ((1, 1), (2, 9), (5, 12)),-0.00011361681881366108
u,tu = ((0, 12), (1, 1), (3, 9)),2.578503809568623e-05
u,tu = ((1, 1), (2, 12), (3, 9)),0.002588458806987944
u,tu = ((1, 1), (3, 9), (4, 12)),3.2562096429402535e-06
u,tu = ((1, 1), (3, 9), (5, 12)),0.0002262911577544328
u,tu = ((0, 12), (1, 1), (4, 9)),0.0001055971315170462
u,tu = ((1, 1), (2, 12), (4, 9)),1.158640053159905e-06
u,tu = ((1, 1), (3, 12), (4, 9)),-2.827675780693071e-06
u,tu = ((1, 1), (4, 9), (5, 12)),1.0309472009908522e-05
u,tu = ((0, 12), (1, 1), (5, 9)),0.00010854802864381599
u,tu = ((1, 1), (2, 12), (5, 9)),9.480317530898759e-05
u,tu = ((1, 1), (3, 12), (5, 9)),-0.00021345034913737096
u,tu = ((1, 1), (4, 12), (5, 9)),-1.0884917517833278e-05
u,tu = ((0, 9), (1, 12), (2, 1)),0.00020871140800324874
u,tu = ((0, 9), (2, 1), (3, 12)),-1.9534402947353242e-05
u,tu = ((0, 9), (2, 1), (4, 12)),-0.00011062376963301834
u,tu = ((0, 9), (2, 1), (5, 12)),-9.438539486569445e-05
u,tu = ((0, 12), (1, 9), (2, 1)),-0.00022131187620889257
u,tu = ((1, 9), (2, 1), (3, 12)),-0.00011276452033321023
u,tu = ((1, 9), (2, 1), (4, 12)),-2.5754993588394246e-05
u,tu = ((1, 9), (2, 1), (5, 12)),-0.0025142408513580943
u,tu = ((0, 12), (2, 1), (3, 9)),1.9663162531509218e-05
u,tu = ((1, 12), (2, 1), (3, 9)),9.430337842712724e-05
u,tu = ((2, 1), (3, 9), (4, 12)),2.310009286089055e-06
u,tu = ((2, 1), (3, 9), (5, 12)),0.00021449643559412877
u,tu = ((0, 12), (2, 1), (4, 9)),0.00010488543674483692
u,tu = ((1, 12), (2, 1), (4, 9)),2.3334131251122547e-05
u,tu = ((2, 1), (3, 12), (4, 9)),-2.206108905883866e-06
u,tu = ((2, 1), (4, 9), (5, 12)),9.926042001203925e-06
u,tu = ((0, 12), (2, 1), (5, 9)),0.00011318237922393917
u,tu = ((1, 12), (2, 1), (5, 9)),0.002507360700293292
u,tu = ((2, 1), (3, 12), (5, 9)),-0.00022560406368124226
u,tu = ((2, 1), (4, 12), (5, 9)),-1.1387635485710567e-05
u,tu = ((0, 9), (2, 12), (3, 1)),4.963883811480138e-06
u,tu = ((0, 9), (3, 1), (4, 12)),-5.456643305863302e-05
u,tu = ((0, 9), (3, 1), (5, 12)),-5.2490730264799485e-05
u,tu = ((1, 9), (2, 12), (3, 1)),-5.781530580057195e-05
u,tu = ((1, 9), (3, 1), (5, 12)),5.904564934228999e-06
u,tu = ((0, 12), (2, 9), (3, 1)),-5.453656401874836e-06
u,tu = ((1, 12), (2, 9), (3, 1)),3.793768556824926e-05
u,tu = ((2, 9), (3, 1), (5, 12)),-5.6306018156377625e-05
u,tu = ((0, 12), (3, 1), (4, 9)),5.317281958046811e-05
u,tu = ((3, 1), (4, 9), (5, 12)),5.150606306120354e-06
u,tu = ((0, 12), (3, 1), (5, 9)),5.3622700586712276e-05
u,tu = ((1, 12), (3, 1), (5, 9)),-4.436538407512819e-06
u,tu = ((2, 12), (3, 1), (5, 9)),5.2235345515741286e-05
u,tu = ((3, 1), (4, 12), (5, 9)),-5.362479040859205e-06
u,tu = ((0, 9), (2, 12), (4, 1)),5.909479331125111e-06
u,tu = ((0, 9), (4, 1), (5, 12)),-5.7839987384516264e-05
u,tu = ((1, 9), (2, 12), (4, 1)),-5.2488296507730853e-05
u,tu = ((1, 9), (3, 12), (4, 1)),-5.4567332304162636e-05
u,tu = ((1, 9), (4, 1), (5, 12)),4.9634516270199976e-06
u,tu = ((0, 12), (2, 9), (4, 1)),-4.431690039814925e-06
u,tu = ((1, 12), (2, 9), (4, 1)),5.362520825799633e-05
u,tu = ((2, 9), (3, 12), (4, 1)),5.360586957953658e-06
u,tu = ((2, 9), (4, 1), (5, 12)),-5.223429364433032e-05
u,tu = ((1, 12), (3, 9), (4, 1)),5.317220645315083e-05
u,tu = ((2, 12), (3, 9), (4, 1)),-5.152671758260041e-06
u,tu = ((0, 12), (4, 1), (5, 9)),3.7924632521572925e-05
u,tu = ((1, 12), (4, 1), (5, 9)),-5.453948184890473e-06
u,tu = ((2, 12), (4, 1), (5, 9)),5.630767404932053e-05
u,tu = ((0, 9), (1, 12), (5, 1)),0.00022131937083100288
u,tu = ((0, 9), (2, 12), (5, 1)),-0.0025143490624467456
u,tu = ((0, 9), (3, 12), (5, 1)),-2.5756300619445456e-05
u,tu = ((0, 9), (4, 12), (5, 1)),-0.00011273345697217204
u,tu = ((0, 12), (1, 9), (5, 1)),-0.00020870343359429428
u,tu = ((1, 9), (2, 12), (5, 1)),-9.437669976520052e-05
u,tu = ((1, 9), (3, 12), (5, 1)),-0.00011062564968651339
u,tu = ((1, 9), (4, 12), (5, 1)),-1.9540522488514594e-05
u,tu = ((0, 12), (2, 9), (5, 1)),0.0025072645908840573
u,tu = ((1, 12), (2, 9), (5, 1)),0.00011320181390165507
u,tu = ((2, 9), (3, 12), (5, 1)),1.1392671836480432e-05
u,tu = ((2, 9), (4, 12), (5, 1)),0.00022567132252768123
u,tu = ((0, 12), (3, 9), (5, 1)),2.333587345733035e-05
u,tu = ((1, 12), (3, 9), (5, 1)),0.00010488264231118936
u,tu = ((2, 12), (3, 9), (5, 1)),-9.921385474958912e-06
u,tu = ((3, 9), (4, 12), (5, 1)),2.2093400990983397e-06
u,tu = ((0, 12), (4, 9), (5, 1)),9.431868004278531e-05
u,tu = ((1, 12), (4, 9), (5, 1)),1.9654557045287527e-05
u,tu = ((2, 12), (4, 9), (5, 1)),-0.00021441235303576765
u,tu = ((3, 12), (4, 9), (5, 1)),-2.3067538022882064e-06
u,tu = ((0, 1), (1, 10), (2, 11)),0.00010189690017703788
u,tu = ((0, 1), (1, 10), (3, 11)),-0.00010745529518431519
u,tu = ((0, 1), (1, 10), (4, 11)),2.8268232696841547e-05
[...]
u,tu = ((1, 6), (3, 12), (5, 14)),-0.00023123358629413
u,tu = ((1, 6), (2, 14), (4, 12)),-1.083814284586779e-06
u,tu = ((1, 6), (3, 14), (4, 12)),3.410132894368588e-06
u,tu = ((1, 6), (2, 14), (5, 12)),-4.904522319577622e-05
u,tu = ((1, 6), (3, 14), (5, 12)),0.00023123358629413134
u,tu = ((0, 12), (1, 14), (2, 6)),-0.0002270730244991783
u,tu = ((0, 12), (2, 6), (3, 14)),2.2332034775364113e-05
u,tu = ((0, 12), (2, 6), (5, 14)),4.895629779351462e-05
u,tu = ((0, 14), (1, 12), (2, 6)),0.00022707302449918146
u,tu = ((1, 12), (2, 6), (3, 14)),4.857287161369253e-05
u,tu = ((1, 12), (2, 6), (4, 14)),2.682119150191718e-05
u,tu = ((1, 12), (2, 6), (5, 14)),0.0023344198511352846
u,tu = ((0, 14), (2, 6), (3, 12)),-2.2332034775364048e-05
u,tu = ((1, 14), (2, 6), (3, 12)),-4.8572871613692776e-05
u,tu = ((2, 6), (3, 12), (4, 14)),-2.648194529567254e-06
u,tu = ((2, 6), (3, 12), (5, 14)),-0.00023130552011197067
u,tu = ((1, 14), (2, 6), (4, 12)),-2.6821191501916893e-05
u,tu = ((2, 6), (3, 14), (4, 12)),2.648194529567285e-06
u,tu = ((2, 6), (4, 12), (5, 14)),-7.821449122771613e-06
u,tu = ((0, 14), (2, 6), (5, 12)),-4.895629779351584e-05
u,tu = ((1, 14), (2, 6), (5, 12)),-0.002334419851135252
u,tu = ((2, 6), (3, 14), (5, 12)),0.00023130552011197203
u,tu = ((2, 6), (4, 14), (5, 12)),7.821449122771595e-06
u,tu = ((0, 12), (1, 14), (3, 6)),1.0805711770029714e-06
u,tu = ((0, 14), (1, 12), (3, 6)),-1.0805711770029636e-06
u,tu = ((1, 12), (2, 14), (3, 6)),4.778538193341704e-05
u,tu = ((1, 12), (3, 6), (5, 14)),-7.68731961485974e-06
u,tu = ((1, 14), (2, 12), (3, 6)),-4.778538193341848e-05
u,tu = ((1, 14), (3, 6), (5, 12)),7.687319614859762e-06
u,tu = ((0, 12), (1, 14), (4, 6)),1.081866336075172e-06
u,tu = ((0, 12), (2, 14), (4, 6)),-7.6923066156846e-06
u,tu = ((0, 12), (4, 6), (5, 14)),4.781428407474726e-05
u,tu = ((0, 14), (1, 12), (4, 6)),-1.0818663360751723e-06
u,tu = ((0, 14), (2, 12), (4, 6)),7.692306615684635e-06
u,tu = ((0, 14), (4, 6), (5, 12)),-4.7814284074746216e-05
u,tu = ((0, 12), (1, 14), (5, 6)),-0.00022706399632472978
u,tu = ((0, 12), (2, 14), (5, 6)),0.002334347911847087
u,tu = ((0, 12), (3, 14), (5, 6)),2.6821101998924053e-05
u,tu = ((0, 12), (4, 14), (5, 6)),4.854470011932792e-05
u,tu = ((0, 14), (1, 12), (5, 6)),0.0002270639963247345
u,tu = ((1, 12), (2, 14), (5, 6)),4.89613397622353e-05
u,tu = ((1, 12), (4, 14), (5, 6)),2.233995577884338e-05
u,tu = ((0, 14), (2, 12), (5, 6)),-0.00233434791184712
u,tu = ((1, 14), (2, 12), (5, 6)),-4.896133976223424e-05
u,tu = ((2, 12), (3, 14), (5, 6)),-7.827066224626265e-06
u,tu = ((2, 12), (4, 14), (5, 6)),-0.0002313924744901962
u,tu = ((0, 14), (3, 12), (5, 6)),-2.6821101998924128e-05
u,tu = ((2, 14), (3, 12), (5, 6)),7.827066224626262e-06
u,tu = ((3, 12), (4, 14), (5, 6)),-2.6493095260560014e-06
u,tu = ((0, 14), (4, 12), (5, 6)),-4.854470011932799e-05
u,tu = ((1, 14), (4, 12), (5, 6)),-2.2339955778843193e-05
u,tu = ((2, 14), (4, 12), (5, 6)),0.0002313924744901947
u,tu = ((3, 14), (4, 12), (5, 6)),2.649309526056033e-06
u,tu = ((0, 7), (1, 9), (2, 15)),-0.00027091624772567413
u,tu = ((0, 7), (1, 9), (3, 15)),-2.2239157581990953e-06
u,tu = ((0, 7), (1, 9), (4, 15)),-2.2385500175926773e-06
u,tu = ((0, 7), (1, 9), (5, 15)),-0.0002709403634248531
u,tu = ((0, 7), (1, 15), (2, 9)),1.7183525900206566e-05
u,tu = ((0, 7), (2, 9), (4, 15)),1.736666290677788e-05
u,tu = ((0, 7), (2, 9), (5, 15)),0.003663530999486862
u,tu = ((0, 7), (1, 15), (3, 9)),3.1100375102659454e-05
u,tu = ((0, 7), (2, 15), (3, 9)),2.3892300472897368e-05
u,tu = ((0, 7), (3, 9), (5, 15)),3.136573019706978e-05
u,tu = ((0, 7), (4, 9), (5, 15)),-0.00014713704863795901
u,tu = ((0, 7), (2, 15), (5, 9)),-0.0001440899001696073
u,tu = ((0, 7), (4, 15), (5, 9)),-0.00014908153767378269
u,tu = ((0, 9), (1, 7), (2, 15)),0.00027091624772568025
u,tu = ((0, 9), (1, 7), (3, 15)),2.2239157581991457e-06
u,tu = ((0, 9), (1, 7), (4, 15)),2.23855001759271e-06
u,tu = ((0, 9), (1, 7), (5, 15)),0.0002709403634248585
u,tu = ((1, 7), (2, 9), (3, 15)),-0.00014907717660773935
u,tu = ((1, 7), (2, 9), (5, 15)),-0.000144073911008829
u,tu = ((1, 7), (2, 15), (3, 9)),-0.00014713742286643234
u,tu = ((0, 15), (1, 7), (4, 9)),3.119788165527327e-05
u,tu = ((1, 7), (2, 15), (4, 9)),3.136089578449925e-05
u,tu = ((1, 7), (4, 9), (5, 15)),2.387884130922439e-05
u,tu = ((0, 15), (1, 7), (5, 9)),1.7246321209864622e-05
u,tu = ((1, 7), (2, 15), (5, 9)),0.003663397453203815
u,tu = ((1, 7), (3, 15), (5, 9)),1.7358331954070462e-05
u,tu = ((0, 9), (1, 15), (2, 7)),-1.7183525900206586e-05
u,tu = ((0, 9), (2, 7), (4, 15)),-1.7366662906778278e-05
u,tu = ((0, 9), (2, 7), (5, 15)),-0.0036635309994870096
u,tu = ((1, 9), (2, 7), (3, 15)),0.00014907717660773927
u,tu = ((1, 9), (2, 7), (5, 15)),0.00014407391100882875
u,tu = ((1, 15), (2, 7), (3, 9)),0.003876469925064714
u,tu = ((2, 7), (3, 9), (5, 15)),1.7256489341669486e-05
u,tu = ((0, 15), (2, 7), (4, 9)),-0.0002783074704425133
u,tu = ((1, 15), (2, 7), (4, 9)),-2.2202142130107824e-06
u,tu = ((2, 7), (4, 9), (5, 15)),-0.00027773668317175614
u,tu = ((0, 15), (2, 7), (5, 9)),-0.0001450893979311793
u,tu = ((1, 15), (2, 7), (5, 9)),-0.00014511262222713663
u,tu = ((0, 9), (1, 15), (3, 7)),-3.1100375102658567e-05
u,tu = ((0, 9), (2, 15), (3, 7)),-2.3892300472896877e-05
u,tu = ((0, 9), (3, 7), (5, 15)),-3.1365730197069194e-05
u,tu = ((1, 9), (2, 15), (3, 7)),0.00014713742286643253
u,tu = ((1, 15), (2, 9), (3, 7)),-0.0038764699250645575
u,tu = ((2, 9), (3, 7), (5, 15)),-1.725648934166905e-05
u,tu = ((0, 15), (3, 7), (4, 9)),-3.839218878721951e-06
u,tu = ((1, 15), (3, 7), (4, 9)),-3.864363134702442e-06
u,tu = ((2, 15), (3, 7), (4, 9)),-2.81321350705643e-06
u,tu = ((3, 7), (4, 9), (5, 15)),-2.8117680813951833e-06
u,tu = ((0, 15), (3, 7), (5, 9)),-2.2442266518066374e-06
u,tu = ((1, 15), (3, 7), (5, 9)),-0.00027830515996794976
u,tu = ((2, 15), (3, 7), (5, 9)),-0.0002778982336561086
u,tu = ((0, 9), (4, 7), (5, 15)),0.00014713704863795888
u,tu = ((0, 15), (1, 9), (4, 7)),-3.119788165527327e-05
u,tu = ((1, 9), (2, 15), (4, 7)),-3.136089578449921e-05
u,tu = ((1, 9), (4, 7), (5, 15)),-2.387884130922439e-05
u,tu = ((0, 15), (2, 9), (4, 7)),0.00027830747044251127
u,tu = ((1, 15), (2, 9), (4, 7)),2.2202142130107956e-06
u,tu = ((2, 9), (4, 7), (5, 15)),0.0002777366831717502
u,tu = ((0, 15), (3, 9), (4, 7)),3.839218878722096e-06
u,tu = ((1, 15), (3, 9), (4, 7)),3.864363134702624e-06
u,tu = ((2, 15), (3, 9), (4, 7)),2.813213507056537e-06
u,tu = ((3, 9), (4, 7), (5, 15)),2.811768081395304e-06
u,tu = ((0, 15), (4, 7), (5, 9)),0.0038763441228939193
u,tu = ((2, 15), (4, 7), (5, 9)),1.724083327086171e-05
u,tu = ((0, 9), (2, 15), (5, 7)),0.00014408990016960763
u,tu = ((0, 9), (4, 15), (5, 7)),0.00014908153767378255
u,tu = ((0, 15), (1, 9), (5, 7)),-1.7246321209864527e-05
u,tu = ((1, 9), (2, 15), (5, 7)),-0.0036633974532036683
u,tu = ((1, 9), (3, 15), (5, 7)),-1.735833195407005e-05
u,tu = ((0, 15), (2, 9), (5, 7)),0.00014508939793117886
u,tu = ((1, 15), (2, 9), (5, 7)),0.00014511262222713654
u,tu = ((0, 15), (3, 9), (5, 7)),2.2442266518066907e-06
u,tu = ((1, 15), (3, 9), (5, 7)),0.00027830515996795404
u,tu = ((2, 15), (3, 9), (5, 7)),0.0002778982336561089
u,tu = ((0, 15), (4, 9), (5, 7)),-0.00387634412289385
u,tu = ((2, 15), (4, 9), (5, 7)),-1.7240833270861414e-05
u,tu = ((0, 7), (1, 10), (2, 15)),-0.0002600014548115865
u,tu = ((0, 7), (1, 10), (3, 15)),1.3931915566739544e-06
u,tu = ((0, 7), (1, 10), (4, 15)),-1.7200205978058734e-06
u,tu = ((0, 7), (1, 10), (5, 15)),-0.00027838446605224574
u,tu = ((0, 7), (1, 15), (2, 10)),-1.0486560615339629e-05
u,tu = ((0, 7), (2, 10), (4, 15)),1.286824164944088e-05
u,tu = ((0, 7), (2, 10), (5, 15)),0.003094311675050328
u,tu = ((0, 7), (1, 15), (3, 10)),-2.9153884779194416e-05
u,tu = ((0, 7), (2, 15), (3, 10)),-2.4789578602814958e-05
u,tu = ((0, 7), (3, 10), (5, 15)),-3.2959337344225485e-05
u,tu = ((0, 7), (4, 10), (5, 15)),8.349486589017316e-05
u,tu = ((0, 7), (2, 15), (5, 10)),-8.195834918028303e-05
u,tu = ((0, 7), (4, 15), (5, 10)),8.193382294004619e-05
u,tu = ((0, 10), (1, 7), (2, 15)),0.0002783617933799181
u,tu = ((0, 10), (1, 7), (3, 15)),1.7350760447845118e-06
u,tu = ((0, 10), (1, 7), (4, 15)),-1.4035299432702167e-06
u,tu = ((0, 10), (1, 7), (5, 15)),0.00026000743059474327
u,tu = ((1, 7), (2, 10), (3, 15)),8.193323694056498e-05
u,tu = ((1, 7), (2, 10), (5, 15)),-8.196019072033783e-05
u,tu = ((1, 7), (2, 15), (3, 10)),8.348793612357852e-05
u,tu = ((0, 15), (1, 7), (4, 10)),-2.9232299212237307e-05
u,tu = ((1, 7), (2, 15), (4, 10)),-3.295255906771861e-05
u,tu = ((1, 7), (4, 10), (5, 15)),-2.478567123358636e-05
u,tu = ((0, 15), (1, 7), (5, 10)),-1.0533384814667874e-05
u,tu = ((1, 7), (2, 15), (5, 10)),0.003094138934866394
u,tu = ((1, 7), (3, 15), (5, 10)),1.2877935325819846e-05
u,tu = ((0, 10), (1, 15), (2, 7)),-1.2834627334780489e-05
u,tu = ((0, 10), (2, 7), (4, 15)),1.0483385253129187e-05
u,tu = ((0, 10), (2, 7), (5, 15)),-0.0030790207320720545
u,tu = ((1, 10), (2, 7), (3, 15)),-8.417655837887328e-05
u,tu = ((1, 10), (2, 7), (5, 15)),8.201297399018909e-05
u,tu = ((1, 15), (2, 7), (3, 10)),-0.0031967888450395773
u,tu = ((2, 7), (3, 10), (5, 15)),-1.2959171536782438e-05
u,tu = ((0, 15), (2, 7), (4, 10)),0.0002638534997331473
u,tu = ((1, 15), (2, 7), (4, 10)),1.7779983698576398e-06
u,tu = ((2, 7), (4, 10), (5, 15)),0.0002827930527816706
u,tu = ((0, 15), (2, 7), (5, 10)),8.245174638377618e-05
u,tu = ((1, 15), (2, 7), (5, 10)),-8.287395863013342e-05
u,tu = ((0, 10), (1, 15), (3, 7)),-3.285964739000752e-05
u,tu = ((0, 10), (2, 15), (3, 7)),-2.505680388104558e-05
u,tu = ((0, 10), (3, 7), (5, 15)),-2.960740486802688e-05
u,tu = ((1, 10), (2, 15), (3, 7)),8.361355610492932e-05
u,tu = ((1, 15), (2, 10), (3, 7)),0.00316754526496305
u,tu = ((2, 10), (3, 7), (5, 15)),-1.0475159522903444e-05
u,tu = ((0, 15), (3, 7), (4, 10)),3.574790970120492e-06
u,tu = ((1, 15), (3, 7), (4, 10)),4.192091328913867e-06
u,tu = ((2, 15), (3, 7), (4, 10)),2.9924029823741856e-06
u,tu = ((3, 7), (4, 10), (5, 15)),2.8653191558379807e-06
u,tu = ((0, 15), (3, 7), (5, 10)),1.4152363880606676e-06
u,tu = ((1, 15), (3, 7), (5, 10)),-0.00028451954746604413
u,tu = ((2, 15), (3, 7), (5, 10)),-0.0002680082070746458
u,tu = ((0, 10), (4, 7), (5, 15)),8.360149471379124e-05
u,tu = ((0, 15), (1, 10), (4, 7)),-3.2868546148160724e-05
u,tu = ((1, 10), (2, 15), (4, 7)),-2.9604698935807925e-05
u,tu = ((1, 10), (4, 7), (5, 15)),-2.5044419496915533e-05
u,tu = ((0, 15), (2, 10), (4, 7)),0.00028453161447197523
u,tu = ((1, 15), (2, 10), (4, 7)),-1.392680409605027e-06
u,tu = ((2, 10), (4, 7), (5, 15)),0.00026787909201635856
u,tu = ((0, 15), (3, 10), (4, 7)),-4.18725229617908e-06
u,tu = ((1, 15), (3, 10), (4, 7)),-3.5970821745540847e-06
u,tu = ((2, 15), (3, 10), (4, 7)),-2.8656318946754834e-06
u,tu = ((3, 10), (4, 7), (5, 15)),-2.991280607032102e-06
u,tu = ((0, 15), (4, 7), (5, 10)),-0.00316751520703245
u,tu = ((2, 15), (4, 7), (5, 10)),1.0462265938014739e-05
u,tu = ((0, 10), (2, 15), (5, 7)),8.203773045784452e-05
u,tu = ((0, 10), (4, 15), (5, 7)),-8.41877133946446e-05
u,tu = ((0, 15), (1, 10), (5, 7)),-1.2832253323865398e-05
u,tu = ((1, 10), (2, 15), (5, 7)),-0.0030789941197199027
u,tu = ((1, 10), (3, 15), (5, 7)),1.0475905131813866e-05
u,tu = ((0, 15), (2, 10), (5, 7)),8.285174913771816e-05
u,tu = ((1, 15), (2, 10), (5, 7)),-8.245314459093244e-05
u,tu = ((0, 15), (3, 10), (5, 7)),-1.7741713074199834e-06
u,tu = ((1, 15), (3, 10), (5, 7)),-0.0002638536058263673
u,tu = ((2, 15), (3, 10), (5, 7)),-0.00028284784829116114
u,tu = ((0, 15), (4, 10), (5, 7)),0.0031966723466299697
u,tu = ((2, 15), (4, 10), (5, 7)),1.2965577673253374e-05
u,tu = ((0, 8), (1, 9), (2, 15)),-0.0002783617933799145
u,tu = ((0, 8), (1, 9), (3, 15)),-1.7350760447844961e-06
u,tu = ((0, 8), (1, 9), (4, 15)),1.4035299432702195e-06
u,tu = ((0, 8), (1, 9), (5, 15)),-0.00026000743059473747
u,tu = ((0, 8), (1, 15), (2, 9)),1.2834627334780533e-05
u,tu = ((0, 8), (2, 9), (4, 15)),-1.0483385253129033e-05
u,tu = ((0, 8), (2, 9), (5, 15)),0.0030790207320719426
u,tu = ((0, 8), (1, 15), (3, 9)),3.285964739000855e-05
u,tu = ((0, 8), (2, 15), (3, 9)),2.5056803881046238e-05
u,tu = ((0, 8), (3, 9), (5, 15)),2.9607404868027314e-05
u,tu = ((0, 8), (4, 9), (5, 15)),-8.360149471379195e-05
u,tu = ((0, 8), (2, 15), (5, 9)),-8.203773045784436e-05
u,tu = ((0, 8), (4, 15), (5, 9)),8.418771339464465e-05
u,tu = ((0, 9), (1, 8), (2, 15)),0.00026000145481159257
u,tu = ((0, 9), (1, 8), (3, 15)),-1.3931915566739754e-06
u,tu = ((0, 9), (1, 8), (4, 15)),1.7200205978058887e-06
u,tu = ((0, 9), (1, 8), (5, 15)),0.00027838446605225046
u,tu = ((1, 8), (2, 9), (3, 15)),8.417655837887337e-05
u,tu = ((1, 8), (2, 9), (5, 15)),-8.201297399018934e-05
u,tu = ((1, 8), (2, 15), (3, 9)),-8.36135561049292e-05
u,tu = ((0, 15), (1, 8), (4, 9)),3.286854614816042e-05
u,tu = ((1, 8), (2, 15), (4, 9)),2.9604698935808067e-05
u,tu = ((1, 8), (4, 9), (5, 15)),2.504441949691534e-05
u,tu = ((0, 15), (1, 8), (5, 9)),1.2832253323865379e-05
u,tu = ((1, 8), (2, 15), (5, 9)),0.0030789941197200206
u,tu = ((1, 8), (3, 15), (5, 9)),-1.047590513181404e-05
u,tu = ((0, 9), (1, 15), (2, 8)),1.0486560615339546e-05
u,tu = ((0, 9), (2, 8), (4, 15)),-1.2868241649440888e-05
u,tu = ((0, 9), (2, 8), (5, 15)),-0.0030943116750503743
u,tu = ((1, 9), (2, 8), (3, 15)),-8.193323694056525e-05
u,tu = ((1, 9), (2, 8), (5, 15)),8.19601907203374e-05
u,tu = ((1, 15), (2, 8), (3, 9)),-0.0031675452649632054
u,tu = ((2, 8), (3, 9), (5, 15)),1.047515952290354e-05
u,tu = ((0, 15), (2, 8), (4, 9)),-0.00028453161447197225
u,tu = ((1, 15), (2, 8), (4, 9)),1.3926804096050087e-06
u,tu = ((2, 8), (4, 9), (5, 15)),-0.00026787909201635715
u,tu = ((0, 15), (2, 8), (5, 9)),-8.285174913771693e-05
u,tu = ((1, 15), (2, 8), (5, 9)),8.245314459093112e-05
u,tu = ((0, 9), (1, 15), (3, 8)),2.9153884779194653e-05
u,tu = ((0, 9), (2, 15), (3, 8)),2.4789578602815134e-05
u,tu = ((0, 9), (3, 8), (5, 15)),3.295933734422545e-05
u,tu = ((1, 9), (2, 15), (3, 8)),-8.348793612358044e-05
u,tu = ((1, 15), (2, 9), (3, 8)),0.00319678884503953
u,tu = ((2, 9), (3, 8), (5, 15)),1.2959171536782372e-05
u,tu = ((0, 15), (3, 8), (4, 9)),4.187252296178989e-06
u,tu = ((1, 15), (3, 8), (4, 9)),3.597082174554046e-06
u,tu = ((2, 15), (3, 8), (4, 9)),2.865631894675447e-06
u,tu = ((3, 8), (4, 9), (5, 15)),2.9912806070320544e-06
u,tu = ((0, 15), (3, 8), (5, 9)),1.7741713074199573e-06
u,tu = ((1, 15), (3, 8), (5, 9)),0.00026385360582637223
u,tu = ((2, 15), (3, 8), (5, 9)),0.00028284784829116775
u,tu = ((0, 9), (4, 8), (5, 15)),-8.349486589017187e-05
u,tu = ((0, 15), (1, 9), (4, 8)),2.9232299212236775e-05
u,tu = ((1, 9), (2, 15), (4, 8)),3.295255906771843e-05
u,tu = ((1, 9), (4, 8), (5, 15)),2.478567123358609e-05
u,tu = ((0, 15), (2, 9), (4, 8)),-0.000263853499733141
u,tu = ((1, 15), (2, 9), (4, 8)),-1.777998369857652e-06
u,tu = ((2, 9), (4, 8), (5, 15)),-0.0002827930527816624
u,tu = ((0, 15), (3, 9), (4, 8)),-3.574790970120591e-06
u,tu = ((1, 15), (3, 9), (4, 8)),-4.192091328914021e-06
u,tu = ((2, 15), (3, 9), (4, 8)),-2.9924029823742987e-06
u,tu = ((3, 9), (4, 8), (5, 15)),-2.8653191558380523e-06
u,tu = ((0, 15), (4, 8), (5, 9)),-0.003196672346629985
u,tu = ((2, 15), (4, 8), (5, 9)),-1.2965577673253425e-05
u,tu = ((0, 9), (2, 15), (5, 8)),8.195834918028282e-05
u,tu = ((0, 9), (4, 15), (5, 8)),-8.193382294004585e-05
u,tu = ((0, 15), (1, 9), (5, 8)),1.0533384814667955e-05
u,tu = ((1, 9), (2, 15), (5, 8)),-0.0030941389348663555
u,tu = ((1, 9), (3, 15), (5, 8)),-1.2877935325819729e-05
u,tu = ((0, 15), (2, 9), (5, 8)),-8.245174638377687e-05
u,tu = ((1, 15), (2, 9), (5, 8)),8.287395863013513e-05
u,tu = ((0, 15), (3, 9), (5, 8)),-1.4152363880606915e-06
u,tu = ((1, 15), (3, 9), (5, 8)),0.00028451954746605416
u,tu = ((2, 15), (3, 9), (5, 8)),0.0002680082070746538
u,tu = ((0, 15), (4, 9), (5, 8)),0.003167515207032371
u,tu = ((2, 15), (4, 9), (5, 8)),-1.0462265938014586e-05
u,tu = ((0, 8), (1, 10), (2, 15)),-0.00025434759558725197
u,tu = ((0, 8), (1, 10), (5, 15)),-0.00025435772610022425
u,tu = ((0, 8), (1, 15), (2, 10)),-7.178326496369416e-06
u,tu = ((0, 8), (2, 10), (4, 15)),-7.053144735484191e-06
u,tu = ((0, 8), (2, 10), (5, 15)),0.002685312937561479
u,tu = ((0, 8), (1, 15), (3, 10)),-2.995951845740868e-05
u,tu = ((0, 8), (2, 15), (3, 10)),-2.4763809623350665e-05
u,tu = ((0, 8), (3, 10), (5, 15)),-3.0185526272848498e-05
u,tu = ((0, 8), (4, 10), (5, 15)),5.123073253342143e-05
u,tu = ((0, 8), (2, 15), (5, 10)),-5.081617229490461e-05
u,tu = ((0, 8), (4, 15), (5, 10)),-4.97581145917274e-05
u,tu = ((0, 10), (1, 8), (2, 15)),0.0002543475955872561
u,tu = ((0, 10), (1, 8), (5, 15)),0.00025435772610022815
u,tu = ((1, 8), (2, 10), (3, 15)),-4.974985514687519e-05
u,tu = ((1, 8), (2, 10), (5, 15)),-5.0805642501317834e-05
u,tu = ((1, 8), (2, 15), (3, 10)),5.123769774392839e-05
u,tu = ((0, 15), (1, 8), (4, 10)),-2.9967073140420278e-05
u,tu = ((1, 8), (2, 15), (4, 10)),-3.0179963241744143e-05
u,tu = ((1, 8), (4, 10), (5, 15)),-2.4760280567086152e-05
u,tu = ((0, 15), (1, 8), (5, 10)),-7.179585925924075e-06
u,tu = ((1, 8), (2, 15), (5, 10)),0.00268524498760876
u,tu = ((1, 8), (3, 15), (5, 10)),-7.059648631403082e-06
u,tu = ((0, 10), (1, 15), (2, 8)),7.178326496369392e-06
u,tu = ((0, 10), (2, 8), (4, 15)),7.0531447354841755e-06
u,tu = ((0, 10), (2, 8), (5, 15)),-0.0026853129375615215
u,tu = ((1, 10), (2, 8), (3, 15)),4.974985514687572e-05
u,tu = ((1, 10), (2, 8), (5, 15)),5.0805642501317e-05
u,tu = ((1, 15), (2, 8), (3, 10)),0.0027370684826219156
u,tu = ((2, 8), (3, 10), (5, 15)),-7.250956574880425e-06
u,tu = ((0, 15), (2, 8), (4, 10)),0.0002584216240457961
u,tu = ((1, 15), (2, 8), (4, 10)),-1.020893072469491e-06
u,tu = ((2, 8), (4, 10), (5, 15)),0.00025996840674116697
u,tu = ((0, 15), (2, 8), (5, 10)),5.111594455738714e-05
u,tu = ((1, 15), (2, 8), (5, 10)),5.1123838000120676e-05
u,tu = ((0, 10), (1, 15), (3, 8)),2.995951845740866e-05
u,tu = ((0, 10), (2, 15), (3, 8)),2.4763809623350577e-05
u,tu = ((0, 10), (3, 8), (5, 15)),3.018552627284847e-05
u,tu = ((1, 10), (2, 15), (3, 8)),-5.123769774392945e-05
u,tu = ((1, 15), (2, 10), (3, 8)),-0.002737068482621872
u,tu = ((2, 10), (3, 8), (5, 15)),7.250956574880456e-06
u,tu = ((0, 15), (3, 8), (4, 10)),-3.815014972960653e-06
u,tu = ((1, 15), (3, 8), (4, 10)),-3.819061060805598e-06
u,tu = ((2, 15), (3, 8), (4, 10)),-2.952537840161982e-06
u,tu = ((3, 8), (4, 10), (5, 15)),-2.952495013800464e-06
u,tu = ((0, 15), (3, 8), (5, 10)),-1.0188192913346664e-06
u,tu = ((1, 15), (3, 8), (5, 10)),0.0002584123759521245
u,tu = ((2, 15), (3, 8), (5, 10)),0.00026000812804560975
u,tu = ((0, 10), (4, 8), (5, 15)),-5.123073253342077e-05
u,tu = ((0, 15), (1, 10), (4, 8)),2.996707314042004e-05
u,tu = ((1, 10), (2, 15), (4, 8)),3.0179963241743912e-05
u,tu = ((1, 10), (4, 8), (5, 15)),2.4760280567085962e-05
u,tu = ((0, 15), (2, 10), (4, 8)),-0.0002584216240457943
u,tu = ((1, 15), (2, 10), (4, 8)),1.0208930724694933e-06
u,tu = ((2, 10), (4, 8), (5, 15)),-0.00025996840674116594
u,tu = ((0, 15), (3, 10), (4, 8)),3.8150149729606815e-06
u,tu = ((1, 15), (3, 10), (4, 8)),3.819061060805655e-06
u,tu = ((2, 15), (3, 10), (4, 8)),2.9525378401620134e-06
u,tu = ((3, 10), (4, 8), (5, 15)),2.952495013800495e-06
u,tu = ((0, 15), (4, 8), (5, 10)),0.0027370314072822635
u,tu = ((2, 15), (4, 8), (5, 10)),-7.25572257635959e-06
u,tu = ((0, 10), (2, 15), (5, 8)),5.0816172294905464e-05
u,tu = ((0, 10), (4, 15), (5, 8)),4.9758114591726706e-05
u,tu = ((0, 15), (1, 10), (5, 8)),7.179585925924035e-06
u,tu = ((1, 10), (2, 15), (5, 8)),-0.002685244987608731
u,tu = ((1, 10), (3, 15), (5, 8)),7.059648631403149e-06
u,tu = ((0, 15), (2, 10), (5, 8)),-5.1115944557388096e-05
u,tu = ((1, 15), (2, 10), (5, 8)),-5.112383800012171e-05
u,tu = ((0, 15), (3, 10), (5, 8)),1.0188192913346975e-06
u,tu = ((1, 15), (3, 10), (5, 8)),-0.000258412375952125
u,tu = ((2, 15), (3, 10), (5, 8)),-0.0002600081280456114
u,tu = ((0, 15), (4, 10), (5, 8)),-0.0027370314072822396
u,tu = ((2, 15), (4, 10), (5, 8)),7.255722576359629e-06







End abic program at 13:54:24 10/16 2020
