 Entering Gaussian System, Link 0=g16
 Input=C13H28-opt.gjf
 Output=C13H28-opt.log
 Initial command:
 /home/qingchun/software/g16A_modified_by_qingchun/g16/l1.exe "/scratch/qingchun/gaussian/Gau-600.inp" -scrdir="/scratch/qingchun/gaussian/"
 Entering Link 1 = /home/qingchun/software/g16A_modified_by_qingchun/g16/l1.exe PID=       601.
  
 Copyright (c) 1988,1990,1992,1993,1995,1998,2003,2009,2016,
            Gaussian, Inc.  All Rights Reserved.
  
 This is part of the Gaussian(R) 16 program.  It is based on
 the Gaussian(R) 09 system (copyright 2009, Gaussian, Inc.),
 the Gaussian(R) 03 system (copyright 2003, Gaussian, Inc.),
 the Gaussian(R) 98 system (copyright 1998, Gaussian, Inc.),
 the Gaussian(R) 94 system (copyright 1995, Gaussian, Inc.),
 the Gaussian 92(TM) system (copyright 1992, Gaussian, Inc.),
 the Gaussian 90(TM) system (copyright 1990, Gaussian, Inc.),
 the Gaussian 88(TM) system (copyright 1988, Gaussian, Inc.),
 the Gaussian 86(TM) system (copyright 1986, Carnegie Mellon
 University), and the Gaussian 82(TM) system (copyright 1983,
 Carnegie Mellon University). Gaussian is a federally registered
 trademark of Gaussian, Inc.
  
 This software contains proprietary and confidential information,
 including trade secrets, belonging to Gaussian, Inc.
  
 This software is provided under written license and may be
 used, copied, transmitted, or stored only in accord with that
 written license.
  
 The following legend is applicable only to US Government
 contracts under FAR:
  
                    RESTRICTED RIGHTS LEGEND
  
 Use, reproduction and disclosure by the US Government is
 subject to restrictions as set forth in subparagraphs (a)
 and (c) of the Commercial Computer Software - Restricted
 Rights clause in FAR 52.227-19.
  
 Gaussian, Inc.
 340 Quinnipiac St., Bldg. 40, Wallingford CT 06492
  
  
 ---------------------------------------------------------------
 Warning -- This program may not be used in any manner that
 competes with the business of Gaussian, Inc. or will provide
 assistance to any competitor of Gaussian, Inc.  The licensee
 of this program is prohibited from giving any competitor of
 Gaussian, Inc. access to this program.  By using this program,
 the user acknowledges that Gaussian, Inc. is engaged in the
 business of creating and licensing software in the field of
 computational chemistry and represents and warrants to the
 licensee that it is not a competitor of Gaussian, Inc. and that
 it will not use this program in any manner prohibited above.
 ---------------------------------------------------------------
  

 Cite this work as:
 Gaussian 16, Revision A.03,
 M. J. Frisch, G. W. Trucks, H. B. Schlegel, G. E. Scuseria, 
 M. A. Robb, J. R. Cheeseman, G. Scalmani, V. Barone, 
 G. A. Petersson, H. Nakatsuji, X. Li, M. Caricato, A. V. Marenich, 
 J. Bloino, B. G. Janesko, R. Gomperts, B. Mennucci, H. P. Hratchian, 
 J. V. Ortiz, A. F. Izmaylov, J. L. Sonnenberg, D. Williams-Young, 
 F. Ding, F. Lipparini, F. Egidi, J. Goings, B. Peng, A. Petrone, 
 T. Henderson, D. Ranasinghe, V. G. Zakrzewski, J. Gao, N. Rega, 
 G. Zheng, W. Liang, M. Hada, M. Ehara, K. Toyota, R. Fukuda, 
 J. Hasegawa, M. Ishida, T. Nakajima, Y. Honda, O. Kitao, H. Nakai, 
 T. Vreven, K. Throssell, J. A. Montgomery, Jr., J. E. Peralta, 
 F. Ogliaro, M. J. Bearpark, J. J. Heyd, E. N. Brothers, K. N. Kudin, 
 V. N. Staroverov, T. A. Keith, R. Kobayashi, J. Normand, 
 K. Raghavachari, A. P. Rendell, J. C. Burant, S. S. Iyengar, 
 J. Tomasi, M. Cossi, J. M. Millam, M. Klene, C. Adamo, R. Cammi, 
 J. W. Ochterski, R. L. Martin, K. Morokuma, O. Farkas, 
 J. B. Foresman, and D. J. Fox, Gaussian, Inc., Wallingford CT, 2016.
 
 ******************************************
 Gaussian 16:  ES64L-G16RevA.03 25-Dec-2016
                 9-Jan-2020 
 ******************************************
 %nprocshared=8
 Will use up to    8 processors via shared memory.
 %mem=30GB
 %chk=C13H28-opt.chk
 ------------------------
 # opt freq b3lyp/cc-pVDZ
 ------------------------
 1/18=20,19=15,26=3,38=1/1,3;
 2/9=110,12=2,17=6,18=5,40=1/2;
 3/5=16,11=2,25=1,30=1,71=1,74=-5/1,2,3;
 4//1;
 5/5=2,38=5/2;
 6/7=2,8=2,9=2,10=2,28=1/1;
 7//1,2,3,16;
 1/18=20,19=15,26=3/3(2);
 2/9=110/2;
 99//99;
 2/9=110/2;
 3/5=16,11=2,25=1,30=1,71=1,74=-5/1,2,3;
 4/5=5,16=3,69=1/1;
 5/5=2,38=5/2;
 7//1,2,3,16;
 1/18=20,19=15,26=3/3(-5);
 2/9=110/2;
 6/7=2,8=2,9=2,10=2,19=2,28=1/1;
 99/9=1/99;
 -------------------
 Title Card Required
 -------------------
 Symbolic Z-matrix:
 Charge =  0 Multiplicity = 1
 C                    -2.55842  -0.60768   0.03349 
 H                    -2.20176  -1.61649   0.03349 
 H                    -2.20174  -0.10328   0.90714 
 H                    -2.20174  -0.10328  -0.84016 
 C                    -4.09842  -0.60766   0.03349 
 H                    -4.45507   0.40115   0.03545 
 H                    -4.45509  -1.11036  -0.84114 
 C                    -4.61176  -1.33605   1.28949 
 H                    -4.25478  -0.83356   2.16411 
 H                    -4.25541  -2.34497   1.28734 
 C                    -6.15176  -1.33556   1.28976 
 H                    -6.50874  -1.83798   0.41509 
 H                    -6.50811  -0.32665   1.29199 
 C                    -6.6651   -2.06406   2.54569 
 H                    -6.30811  -1.56165   3.42036 
 H                    -6.30876  -3.07298   2.54346 
 C                    -8.2051   -2.06356   2.54597 
 H                    -8.56209  -2.56597   1.6713 
 H                    -8.56144  -1.05464   2.5482 
 C                    -8.71844  -2.79206   3.8019 
 H                    -8.36146  -2.28965   4.67657 
 H                    -8.3621   -3.80098   3.79967 
 C                    -10.25844  -2.79157   3.80218 
 H                    -10.61543  -3.29398   2.92751 
 H                    -10.61478  -1.78265   3.80441 
 C                    -10.77178  -3.52006   5.05812 
 H                    -10.4148  -3.01765   5.93278 
 H                    -10.41544  -4.52898   5.05589 
 C                    -12.31178  -3.51957   5.05839 
 H                    -12.66877  -4.02198   4.18372 
 H                    -12.66813  -2.51065   5.06062 
 C                    -12.82513  -4.24806   6.31433 
 H                    -12.46814  -3.74565   7.18899 
 H                    -12.46878  -5.25698   6.3121 
 C                    -14.36513  -4.24757   6.3146 
 H                    -14.72211  -4.74999   5.43993 
 H                    -14.72147  -3.23866   6.31683 
 C                    -14.87847  -4.97607   7.57054 
 H                    -14.52149  -4.47365   8.4452 
 H                    -15.94847  -4.97573   7.57073 
 H                    -14.52212  -5.98498   7.56831 
 

 GradGradGradGradGradGradGradGradGradGradGradGradGradGradGradGradGradGrad
 Berny optimization.
 Initialization pass.
                           ----------------------------
                           !    Initial Parameters    !
                           ! (Angstroms and Degrees)  !
 --------------------------                            --------------------------
 ! Name  Definition              Value          Derivative Info.                !
 --------------------------------------------------------------------------------
 ! R1    R(1,2)                  1.07           estimate D2E/DX2                !
 ! R2    R(1,3)                  1.07           estimate D2E/DX2                !
 ! R3    R(1,4)                  1.07           estimate D2E/DX2                !
 ! R4    R(1,5)                  1.54           estimate D2E/DX2                !
 ! R5    R(5,6)                  1.07           estimate D2E/DX2                !
 ! R6    R(5,7)                  1.07           estimate D2E/DX2                !
 ! R7    R(5,8)                  1.54           estimate D2E/DX2                !
 ! R8    R(8,9)                  1.07           estimate D2E/DX2                !
 ! R9    R(8,10)                 1.07           estimate D2E/DX2                !
 ! R10   R(8,11)                 1.54           estimate D2E/DX2                !
 ! R11   R(11,12)                1.07           estimate D2E/DX2                !
 ! R12   R(11,13)                1.07           estimate D2E/DX2                !
 ! R13   R(11,14)                1.54           estimate D2E/DX2                !
 ! R14   R(14,15)                1.07           estimate D2E/DX2                !
 ! R15   R(14,16)                1.07           estimate D2E/DX2                !
 ! R16   R(14,17)                1.54           estimate D2E/DX2                !
 ! R17   R(17,18)                1.07           estimate D2E/DX2                !
 ! R18   R(17,19)                1.07           estimate D2E/DX2                !
 ! R19   R(17,20)                1.54           estimate D2E/DX2                !
 ! R20   R(20,21)                1.07           estimate D2E/DX2                !
 ! R21   R(20,22)                1.07           estimate D2E/DX2                !
 ! R22   R(20,23)                1.54           estimate D2E/DX2                !
 ! R23   R(23,24)                1.07           estimate D2E/DX2                !
 ! R24   R(23,25)                1.07           estimate D2E/DX2                !
 ! R25   R(23,26)                1.54           estimate D2E/DX2                !
 ! R26   R(26,27)                1.07           estimate D2E/DX2                !
 ! R27   R(26,28)                1.07           estimate D2E/DX2                !
 ! R28   R(26,29)                1.54           estimate D2E/DX2                !
 ! R29   R(29,30)                1.07           estimate D2E/DX2                !
 ! R30   R(29,31)                1.07           estimate D2E/DX2                !
 ! R31   R(29,32)                1.54           estimate D2E/DX2                !
 ! R32   R(32,33)                1.07           estimate D2E/DX2                !
 ! R33   R(32,34)                1.07           estimate D2E/DX2                !
 ! R34   R(32,35)                1.54           estimate D2E/DX2                !
 ! R35   R(35,36)                1.07           estimate D2E/DX2                !
 ! R36   R(35,37)                1.07           estimate D2E/DX2                !
 ! R37   R(35,38)                1.54           estimate D2E/DX2                !
 ! R38   R(38,39)                1.07           estimate D2E/DX2                !
 ! R39   R(38,40)                1.07           estimate D2E/DX2                !
 ! R40   R(38,41)                1.07           estimate D2E/DX2                !
 ! A1    A(2,1,3)              109.4712         estimate D2E/DX2                !
 ! A2    A(2,1,4)              109.4712         estimate D2E/DX2                !
 ! A3    A(2,1,5)              109.4712         estimate D2E/DX2                !
 ! A4    A(3,1,4)              109.4713         estimate D2E/DX2                !
 ! A5    A(3,1,5)              109.4712         estimate D2E/DX2                !
 ! A6    A(4,1,5)              109.4712         estimate D2E/DX2                !
 ! A7    A(1,5,6)              109.4712         estimate D2E/DX2                !
 ! A8    A(1,5,7)              109.4712         estimate D2E/DX2                !
 ! A9    A(1,5,8)              109.4712         estimate D2E/DX2                !
 ! A10   A(6,5,7)              109.4712         estimate D2E/DX2                !
 ! A11   A(6,5,8)              109.4713         estimate D2E/DX2                !
 ! A12   A(7,5,8)              109.4712         estimate D2E/DX2                !
 ! A13   A(5,8,9)              109.4712         estimate D2E/DX2                !
 ! A14   A(5,8,10)             109.4712         estimate D2E/DX2                !
 ! A15   A(5,8,11)             109.4712         estimate D2E/DX2                !
 ! A16   A(9,8,10)             109.4712         estimate D2E/DX2                !
 ! A17   A(9,8,11)             109.4713         estimate D2E/DX2                !
 ! A18   A(10,8,11)            109.4712         estimate D2E/DX2                !
 ! A19   A(8,11,12)            109.4712         estimate D2E/DX2                !
 ! A20   A(8,11,13)            109.4712         estimate D2E/DX2                !
 ! A21   A(8,11,14)            109.4712         estimate D2E/DX2                !
 ! A22   A(12,11,13)           109.4712         estimate D2E/DX2                !
 ! A23   A(12,11,14)           109.4713         estimate D2E/DX2                !
 ! A24   A(13,11,14)           109.4712         estimate D2E/DX2                !
 ! A25   A(11,14,15)           109.4712         estimate D2E/DX2                !
 ! A26   A(11,14,16)           109.4712         estimate D2E/DX2                !
 ! A27   A(11,14,17)           109.4712         estimate D2E/DX2                !
 ! A28   A(15,14,16)           109.4712         estimate D2E/DX2                !
 ! A29   A(15,14,17)           109.4713         estimate D2E/DX2                !
 ! A30   A(16,14,17)           109.4712         estimate D2E/DX2                !
 ! A31   A(14,17,18)           109.4712         estimate D2E/DX2                !
 ! A32   A(14,17,19)           109.4712         estimate D2E/DX2                !
 ! A33   A(14,17,20)           109.4712         estimate D2E/DX2                !
 ! A34   A(18,17,19)           109.4712         estimate D2E/DX2                !
 ! A35   A(18,17,20)           109.4713         estimate D2E/DX2                !
 ! A36   A(19,17,20)           109.4712         estimate D2E/DX2                !
 ! A37   A(17,20,21)           109.4712         estimate D2E/DX2                !
 ! A38   A(17,20,22)           109.4712         estimate D2E/DX2                !
 ! A39   A(17,20,23)           109.4712         estimate D2E/DX2                !
 ! A40   A(21,20,22)           109.4712         estimate D2E/DX2                !
 ! A41   A(21,20,23)           109.4713         estimate D2E/DX2                !
 ! A42   A(22,20,23)           109.4712         estimate D2E/DX2                !
 ! A43   A(20,23,24)           109.4712         estimate D2E/DX2                !
 ! A44   A(20,23,25)           109.4712         estimate D2E/DX2                !
 ! A45   A(20,23,26)           109.4712         estimate D2E/DX2                !
 ! A46   A(24,23,25)           109.4712         estimate D2E/DX2                !
 ! A47   A(24,23,26)           109.4713         estimate D2E/DX2                !
 ! A48   A(25,23,26)           109.4712         estimate D2E/DX2                !
 ! A49   A(23,26,27)           109.4712         estimate D2E/DX2                !
 ! A50   A(23,26,28)           109.4712         estimate D2E/DX2                !
 ! A51   A(23,26,29)           109.4712         estimate D2E/DX2                !
 ! A52   A(27,26,28)           109.4712         estimate D2E/DX2                !
 ! A53   A(27,26,29)           109.4713         estimate D2E/DX2                !
 ! A54   A(28,26,29)           109.4712         estimate D2E/DX2                !
 ! A55   A(26,29,30)           109.4712         estimate D2E/DX2                !
 ! A56   A(26,29,31)           109.4712         estimate D2E/DX2                !
 ! A57   A(26,29,32)           109.4712         estimate D2E/DX2                !
 ! A58   A(30,29,31)           109.4712         estimate D2E/DX2                !
 ! A59   A(30,29,32)           109.4713         estimate D2E/DX2                !
 ! A60   A(31,29,32)           109.4712         estimate D2E/DX2                !
 ! A61   A(29,32,33)           109.4712         estimate D2E/DX2                !
 ! A62   A(29,32,34)           109.4712         estimate D2E/DX2                !
 ! A63   A(29,32,35)           109.4712         estimate D2E/DX2                !
 ! A64   A(33,32,34)           109.4712         estimate D2E/DX2                !
 ! A65   A(33,32,35)           109.4713         estimate D2E/DX2                !
 ! A66   A(34,32,35)           109.4712         estimate D2E/DX2                !
 ! A67   A(32,35,36)           109.4712         estimate D2E/DX2                !
 ! A68   A(32,35,37)           109.4712         estimate D2E/DX2                !
 ! A69   A(32,35,38)           109.4712         estimate D2E/DX2                !
 ! A70   A(36,35,37)           109.4712         estimate D2E/DX2                !
 ! A71   A(36,35,38)           109.4713         estimate D2E/DX2                !
 ! A72   A(37,35,38)           109.4712         estimate D2E/DX2                !
 ! A73   A(35,38,39)           109.4712         estimate D2E/DX2                !
 ! A74   A(35,38,40)           109.4712         estimate D2E/DX2                !
 ! A75   A(35,38,41)           109.4712         estimate D2E/DX2                !
 ! A76   A(39,38,40)           109.4713         estimate D2E/DX2                !
 ! A77   A(39,38,41)           109.4712         estimate D2E/DX2                !
 ! A78   A(40,38,41)           109.4712         estimate D2E/DX2                !
 ! D1    D(2,1,5,6)            179.8889         estimate D2E/DX2                !
 ! D2    D(2,1,5,7)            -60.1111         estimate D2E/DX2                !
 ! D3    D(2,1,5,8)             59.8889         estimate D2E/DX2                !
 ! D4    D(3,1,5,6)             59.8889         estimate D2E/DX2                !
 ! D5    D(3,1,5,7)            179.8889         estimate D2E/DX2                !
 ! D6    D(3,1,5,8)            -60.1111         estimate D2E/DX2                !
 ! D7    D(4,1,5,6)            -60.1111         estimate D2E/DX2                !
 ! D8    D(4,1,5,7)             59.8889         estimate D2E/DX2                !
 ! D9    D(4,1,5,8)            179.8889         estimate D2E/DX2                !
 ! D10   D(1,5,8,9)             59.9786         estimate D2E/DX2                !
 ! D11   D(1,5,8,10)           -60.0214         estimate D2E/DX2                !
 ! D12   D(1,5,8,11)           179.9786         estimate D2E/DX2                !
 ! D13   D(6,5,8,9)            -60.0214         estimate D2E/DX2                !
 ! D14   D(6,5,8,10)           179.9786         estimate D2E/DX2                !
 ! D15   D(6,5,8,11)            59.9786         estimate D2E/DX2                !
 ! D16   D(7,5,8,9)            179.9786         estimate D2E/DX2                !
 ! D17   D(7,5,8,10)            59.9786         estimate D2E/DX2                !
 ! D18   D(7,5,8,11)           -60.0214         estimate D2E/DX2                !
 ! D19   D(5,8,11,12)           59.9953         estimate D2E/DX2                !
 ! D20   D(5,8,11,13)          -60.0047         estimate D2E/DX2                !
 ! D21   D(5,8,11,14)          179.9953         estimate D2E/DX2                !
 ! D22   D(9,8,11,12)          179.9953         estimate D2E/DX2                !
 ! D23   D(9,8,11,13)           59.9953         estimate D2E/DX2                !
 ! D24   D(9,8,11,14)          -60.0047         estimate D2E/DX2                !
 ! D25   D(10,8,11,12)         -60.0047         estimate D2E/DX2                !
 ! D26   D(10,8,11,13)         179.9953         estimate D2E/DX2                !
 ! D27   D(10,8,11,14)          59.9953         estimate D2E/DX2                !
 ! D28   D(8,11,14,15)          59.9995         estimate D2E/DX2                !
 ! D29   D(8,11,14,16)         -60.0005         estimate D2E/DX2                !
 ! D30   D(8,11,14,17)         179.9995         estimate D2E/DX2                !
 ! D31   D(12,11,14,15)        179.9995         estimate D2E/DX2                !
 ! D32   D(12,11,14,16)         59.9995         estimate D2E/DX2                !
 ! D33   D(12,11,14,17)        -60.0005         estimate D2E/DX2                !
 ! D34   D(13,11,14,15)        -60.0005         estimate D2E/DX2                !
 ! D35   D(13,11,14,16)        179.9995         estimate D2E/DX2                !
 ! D36   D(13,11,14,17)         59.9995         estimate D2E/DX2                !
 ! D37   D(11,14,17,18)         59.9999         estimate D2E/DX2                !
 ! D38   D(11,14,17,19)        -60.0001         estimate D2E/DX2                !
 ! D39   D(11,14,17,20)        179.9999         estimate D2E/DX2                !
 ! D40   D(15,14,17,18)        179.9999         estimate D2E/DX2                !
 ! D41   D(15,14,17,19)         59.9999         estimate D2E/DX2                !
 ! D42   D(15,14,17,20)        -60.0001         estimate D2E/DX2                !
 ! D43   D(16,14,17,18)        -60.0001         estimate D2E/DX2                !
 ! D44   D(16,14,17,19)        179.9999         estimate D2E/DX2                !
 ! D45   D(16,14,17,20)         59.9999         estimate D2E/DX2                !
 ! D46   D(14,17,20,21)         60.0001         estimate D2E/DX2                !
 ! D47   D(14,17,20,22)        -59.9999         estimate D2E/DX2                !
 ! D48   D(14,17,20,23)       -179.9999         estimate D2E/DX2                !
 ! D49   D(18,17,20,21)       -179.9999         estimate D2E/DX2                !
 ! D50   D(18,17,20,22)         60.0001         estimate D2E/DX2                !
 ! D51   D(18,17,20,23)        -59.9999         estimate D2E/DX2                !
 ! D52   D(19,17,20,21)        -59.9999         estimate D2E/DX2                !
 ! D53   D(19,17,20,22)       -179.9999         estimate D2E/DX2                !
 ! D54   D(19,17,20,23)         60.0001         estimate D2E/DX2                !
 ! D55   D(17,20,23,24)         60.0001         estimate D2E/DX2                !
 ! D56   D(17,20,23,25)        -59.9999         estimate D2E/DX2                !
 ! D57   D(17,20,23,26)       -179.9999         estimate D2E/DX2                !
 ! D58   D(21,20,23,24)       -179.9999         estimate D2E/DX2                !
 ! D59   D(21,20,23,25)         60.0001         estimate D2E/DX2                !
 ! D60   D(21,20,23,26)        -59.9999         estimate D2E/DX2                !
 ! D61   D(22,20,23,24)        -59.9999         estimate D2E/DX2                !
 ! D62   D(22,20,23,25)       -179.9999         estimate D2E/DX2                !
 ! D63   D(22,20,23,26)         60.0001         estimate D2E/DX2                !
 ! D64   D(20,23,26,27)         60.0001         estimate D2E/DX2                !
 ! D65   D(20,23,26,28)        -59.9999         estimate D2E/DX2                !
 ! D66   D(20,23,26,29)       -179.9999         estimate D2E/DX2                !
 ! D67   D(24,23,26,27)       -179.9999         estimate D2E/DX2                !
 ! D68   D(24,23,26,28)         60.0001         estimate D2E/DX2                !
 ! D69   D(24,23,26,29)        -59.9999         estimate D2E/DX2                !
 ! D70   D(25,23,26,27)        -59.9999         estimate D2E/DX2                !
 ! D71   D(25,23,26,28)       -179.9999         estimate D2E/DX2                !
 ! D72   D(25,23,26,29)         60.0001         estimate D2E/DX2                !
 ! D73   D(23,26,29,30)         60.0001         estimate D2E/DX2                !
 ! D74   D(23,26,29,31)        -59.9999         estimate D2E/DX2                !
 ! D75   D(23,26,29,32)       -179.9999         estimate D2E/DX2                !
 ! D76   D(27,26,29,30)       -179.9999         estimate D2E/DX2                !
 ! D77   D(27,26,29,31)         60.0001         estimate D2E/DX2                !
 ! D78   D(27,26,29,32)        -59.9999         estimate D2E/DX2                !
 ! D79   D(28,26,29,30)        -59.9999         estimate D2E/DX2                !
 ! D80   D(28,26,29,31)       -179.9999         estimate D2E/DX2                !
 ! D81   D(28,26,29,32)         60.0001         estimate D2E/DX2                !
 ! D82   D(26,29,32,33)         60.0001         estimate D2E/DX2                !
 ! D83   D(26,29,32,34)        -59.9999         estimate D2E/DX2                !
 ! D84   D(26,29,32,35)       -179.9999         estimate D2E/DX2                !
 ! D85   D(30,29,32,33)       -179.9999         estimate D2E/DX2                !
 ! D86   D(30,29,32,34)         60.0001         estimate D2E/DX2                !
 ! D87   D(30,29,32,35)        -59.9999         estimate D2E/DX2                !
 ! D88   D(31,29,32,33)        -59.9999         estimate D2E/DX2                !
 ! D89   D(31,29,32,34)       -179.9999         estimate D2E/DX2                !
 ! D90   D(31,29,32,35)         60.0001         estimate D2E/DX2                !
 ! D91   D(29,32,35,36)         60.0001         estimate D2E/DX2                !
 ! D92   D(29,32,35,37)        -59.9999         estimate D2E/DX2                !
 ! D93   D(29,32,35,38)       -179.9999         estimate D2E/DX2                !
 ! D94   D(33,32,35,36)       -179.9999         estimate D2E/DX2                !
 ! D95   D(33,32,35,37)         60.0001         estimate D2E/DX2                !
 ! D96   D(33,32,35,38)        -59.9999         estimate D2E/DX2                !
 ! D97   D(34,32,35,36)        -59.9999         estimate D2E/DX2                !
 ! D98   D(34,32,35,37)       -179.9999         estimate D2E/DX2                !
 ! D99   D(34,32,35,38)         60.0001         estimate D2E/DX2                !
 ! D100  D(32,35,38,39)         60.0001         estimate D2E/DX2                !
 ! D101  D(32,35,38,40)       -179.9999         estimate D2E/DX2                !
 ! D102  D(32,35,38,41)        -59.9999         estimate D2E/DX2                !
 ! D103  D(36,35,38,39)       -179.9999         estimate D2E/DX2                !
 ! D104  D(36,35,38,40)        -59.9999         estimate D2E/DX2                !
 ! D105  D(36,35,38,41)         60.0001         estimate D2E/DX2                !
 ! D106  D(37,35,38,39)        -59.9999         estimate D2E/DX2                !
 ! D107  D(37,35,38,40)         60.0001         estimate D2E/DX2                !
 ! D108  D(37,35,38,41)       -179.9999         estimate D2E/DX2                !
 --------------------------------------------------------------------------------
 Trust Radius=3.00D-01 FncErr=1.00D-07 GrdErr=1.00D-06 EigMax=2.50D+02 EigMin=1.00D-04
 Number of steps in this run=    236 maximum allowed number of steps=    246.
 GradGradGradGradGradGradGradGradGradGradGradGradGradGradGradGradGradGrad

                          Input orientation:                          
 ---------------------------------------------------------------------
 Center     Atomic      Atomic             Coordinates (Angstroms)
 Number     Number       Type             X           Y           Z
 ---------------------------------------------------------------------
      1          6           0       -2.558416   -0.607676    0.033491
      2          1           0       -2.201762   -1.616486    0.033491
      3          1           0       -2.201743   -0.103278    0.907143
      4          1           0       -2.201743   -0.103278   -0.840160
      5          6           0       -4.098416   -0.607657    0.033491
      6          1           0       -4.455070    0.401151    0.035447
      7          1           0       -4.455089   -1.110360   -0.841136
      8          6           0       -4.611758   -1.336051    1.289486
      9          1           0       -4.254777   -0.833564    2.164113
     10          1           0       -4.255411   -2.344967    1.287342
     11          6           0       -6.151758   -1.335563    1.289758
     12          1           0       -6.508738   -1.837977    0.415089
     13          1           0       -6.508105   -0.326647    1.291986
     14          6           0       -6.665100   -2.064060    2.545693
     15          1           0       -6.308112   -1.561651    3.420361
     16          1           0       -6.308760   -3.072979    2.543461
     17          6           0       -8.205100   -2.063562    2.545971
     18          1           0       -8.562086   -2.565970    1.671301
     19          1           0       -8.561440   -1.054644    2.548204
     20          6           0       -8.718442   -2.792061    3.801904
     21          1           0       -8.361456   -2.289652    4.676573
     22          1           0       -8.362100   -3.800979    3.799672
     23          6           0      -10.258442   -2.791566    3.802181
     24          1           0      -10.615427   -3.293976    2.927512
     25          1           0      -10.614783   -1.782648    3.804412
     26          6           0      -10.771783   -3.520063    5.058115
     27          1           0      -10.414799   -3.017651    5.932784
     28          1           0      -10.415440   -4.528980    5.055886
     29          6           0      -12.311783   -3.519569    5.058391
     30          1           0      -12.668767   -4.021982    4.183723
     31          1           0      -12.668127   -2.510652    5.060619
     32          6           0      -12.825125   -4.248064    6.314327
     33          1           0      -12.468142   -3.745650    7.188994
     34          1           0      -12.468781   -5.256981    6.312099
     35          6           0      -14.365125   -4.247573    6.314601
     36          1           0      -14.722107   -4.749988    5.439934
     37          1           0      -14.721470   -3.238656    6.316826
     38          6           0      -14.878467   -4.976065    7.570538
     39          1           0      -14.521485   -4.473649    8.445205
     40          1           0      -15.948467   -4.975725    7.570728
     41          1           0      -14.522121   -5.984982    7.568313
 ---------------------------------------------------------------------
                    Distance matrix (angstroms):
                    1          2          3          4          5
     1  C    0.000000
     2  H    1.070000   0.000000
     3  H    1.070000   1.747302   0.000000
     4  H    1.070000   1.747302   1.747303   0.000000
     5  C    1.540000   2.148263   2.148263   2.148263   0.000000
     6  H    2.148263   3.024609   2.468154   2.469538   1.070000
     7  H    2.148263   2.469539   3.024610   2.468154   1.070000
     8  C    2.514809   2.732078   2.733878   3.444313   1.540000
     9  H    2.732804   3.060619   2.515600   3.711324   2.148263
    10  H    2.733151   2.514021   3.063866   3.710658   2.148263
    11  C    3.875581   4.154467   4.155423   4.653783   2.514809
    12  H    4.155033   4.329517   4.669208   4.809889   2.732939
    13  H    4.154856   4.668199   4.329290   4.810477   2.733016
    14  C    5.029618   5.141290   5.143060   5.935505   3.875581
    15  H    5.142098   5.323158   5.030446   6.094355   4.154967
    16  H    5.142251   5.028792   5.325809   6.093899   4.154922
    17  C    6.349582   6.523227   6.524474   7.165814   5.029618
    18  H    6.523909   6.636088   6.863144   7.268167   5.142155
    19  H    6.523791   6.861848   6.636559   7.268552   5.142194
    20  C    7.544428   7.619057   7.620798   8.440715   6.349582
    21  H    7.619877   7.742945   7.545256   8.553165   6.523866
    22  H    7.619977   7.543599   7.745303   8.552838   6.523835
    23  C    8.846625   8.971840   8.973211   9.679287   7.544428
    24  H    8.972568   9.054230   9.222392   9.755305   7.619914
    25  H    8.972483   9.220975   9.055037   9.755592   7.619940
    26  C   10.059237  10.115123  10.116846  10.950327   8.846626
    27  H   10.115947  10.208765  10.060066  11.037238   8.972537
    28  H   10.116022  10.058409  10.210961  11.036984   8.972514
    29  C   11.351515  11.449187  11.450625  12.193312  10.059237
    30  H   11.449939  11.513862  11.646922  12.253743  10.115975
    31  H   11.449872  11.645443  11.514859  12.253972  10.115994
    32  C   12.574046  12.618635  12.620346  13.461879  11.351516
    33  H   12.619460  12.693822  12.574875  13.532669  11.449914
    34  H   12.619520  12.573218  12.695916  13.532462  11.449897
    35  C   13.859998  13.939955  13.941436  14.707605  12.574046
    36  H   13.940723  13.993123  14.103107  14.757744  12.619482
    37  H   13.940668  14.101589  13.994242  14.757933  12.619498
    38  C   15.088855  15.125895  15.127598  15.974455  13.859998
    39  H   15.126721  15.188676  15.089684  16.034157  13.940702
    40  H   15.974456  16.033288  16.034853  16.836157  14.707605
    41  H   15.126771  15.088027  15.190699  16.033982  13.940688
                    6          7          8          9         10
     6  H    0.000000
     7  H    1.747303   0.000000
     8  C    2.148263   2.148263   0.000000
     9  H    2.468979   3.024610   1.070000   0.000000
    10  H    3.024611   2.468713   1.070000   1.747303   0.000000
    11  C    2.732805   2.733150   1.540000   2.148263   2.148263
    12  H    3.061923   2.514955   2.148263   3.024610   2.468875
    13  H    2.514663   3.062562   2.148263   2.468817   3.024610
    14  C    4.154856   4.155033   2.514809   2.733016   2.732939
    15  H    4.329434   4.668803   2.732973   2.514846   3.062179
    16  H    4.668606   4.329372   2.732981   3.062307   2.514772
    17  C    5.142009   5.142340   3.875581   4.154968   4.154922
    18  H    5.324228   5.029768   4.154946   4.668726   4.329402
    19  H    5.029469   5.324739   4.154943   4.329405   4.668682
    20  C    6.523737   6.523965   5.029618   5.142214   5.142136
    21  H    6.636288   6.862620   5.142173   5.029657   5.324430
    22  H    6.862373   6.636359   5.142176   5.324538   5.029579
    23  C    7.619766   7.620088   6.349582   6.523880   6.523821
    24  H    7.743900   7.544577   6.523851   6.862526   6.636307
    25  H    7.544278   7.744347   6.523849   6.636340   6.862467
    26  C    8.972401   8.972651   7.544428   7.619966   7.619888
    27  H    9.054565   9.221816   7.619926   7.544467   7.744075
    28  H    9.221551   9.054701   7.619927   7.744173   7.544389
    29  C   10.115827  10.116143   8.846626   8.972558   8.972493
    30  H   10.209658  10.059386   8.972526   9.221716   9.054610
    31  H   10.059087  10.210069   8.972525   9.054657   9.221651
    32  C   11.449775  11.450037  10.059237  10.116024  10.115946
    33  H   11.514274  11.646320  10.115984  10.059276  10.209817
    34  H   11.646046  11.514447  10.115985  10.209910  10.059198
    35  C   12.619334  12.619647  11.351516  11.449940  11.449872
    36  H   12.694674  12.574195  11.449906  11.646217  11.514333
    37  H   12.573897  12.695064  11.449905  11.514388  11.646149
    38  C   13.940561  13.940830  12.574046  12.619529  12.619451
    39  H   13.993584  14.102488  12.619490  12.574085  12.694825
    40  H   14.757690  14.757989  13.461879  13.532603  13.532531
    41  H   14.102208  13.993781  12.619490  12.694913  12.574007
                   11         12         13         14         15
    11  C    0.000000
    12  H    1.070000   0.000000
    13  H    1.070000   1.747303   0.000000
    14  C    1.540000   2.148263   2.148263   0.000000
    15  H    2.148263   3.024610   2.468849   1.070000   0.000000
    16  H    2.148263   2.468843   3.024610   1.070000   1.747303
    17  C    2.514809   2.732982   2.732973   1.540000   2.148263
    18  H    2.732976   2.514813   3.062235   2.148263   3.024610
    19  H    2.732978   3.062251   2.514806   2.148263   2.468846
    20  C    3.875581   4.154947   4.154942   2.514809   2.732979
    21  H    4.154945   4.668707   4.329403   2.732978   2.514811
    22  H    4.154944   4.329403   4.668701   2.732977   3.062243
    23  C    5.029618   5.142178   5.142171   3.875581   4.154946
    24  H    5.142174   5.029622   5.324479   4.154944   4.668705
    25  H    5.142175   5.324489   5.029615   4.154945   4.329405
    26  C    6.349582   6.523854   6.523848   5.029618   5.142176
    27  H    6.523851   6.862500   6.636322   5.142175   5.029620
    28  H    6.523850   6.636326   6.862493   5.142174   5.324484
    29  C    7.544428   7.619930   7.619924   6.349582   6.523852
    30  H    7.619927   7.544431   7.744120   6.523850   6.862498
    31  H    7.619927   7.744127   7.544424   6.523851   6.636326
    32  C    8.846626   8.972529   8.972523   7.544428   7.619928
    33  H    8.972526   9.221687   9.054630   7.619927   7.544429
    34  H    8.972525   9.054636   9.221681   7.619926   7.744124
    35  C   10.059237  10.115988  10.115982   8.846626   8.972528
    36  H   10.115985  10.059240  10.209860   8.972525   9.221685
    37  H   10.115984  10.209866  10.059233   8.972526   9.054636
    38  C   11.351516  11.449909  11.449903  10.059237  10.115986
    39  H   11.449905  11.646186  11.514358  10.115985  10.059239
    40  H   12.193312  12.253861  12.253855  10.950328  11.037114
    41  H   11.449905  11.514364  11.646179  10.115984  10.209863
                   16         17         18         19         20
    16  H    0.000000
    17  C    2.148263   0.000000
    18  H    2.468846   1.070000   0.000000
    19  H    3.024610   1.070000   1.747303   0.000000
    20  C    2.732976   1.540000   2.148263   2.148263   0.000000
    21  H    3.062242   2.148263   3.024610   2.468845   1.070000
    22  H    2.514807   2.148263   2.468847   3.024610   1.070000
    23  C    4.154943   2.514809   2.732977   2.732978   1.540000
    24  H    4.329401   2.732978   2.514809   3.062245   2.148263
    25  H    4.668703   2.732977   3.062241   2.514809   2.148263
    26  C    5.142174   3.875581   4.154945   4.154944   2.514809
    27  H    5.324484   4.154944   4.668704   4.329401   2.732978
    28  H    5.029617   4.154945   4.329405   4.668704   2.732977
    29  C    6.523849   5.029618   5.142174   5.142175   3.875581
    30  H    6.636321   5.142175   5.029618   5.324486   4.154944
    31  H    6.862495   5.142174   5.324482   5.029618   4.154945
    32  C    7.619926   6.349582   6.523851   6.523850   5.029618
    33  H    7.744124   6.523850   6.862497   6.636322   5.142175
    34  H    7.544426   6.523851   6.636325   6.862497   5.142174
    35  C    8.972524   7.544428   7.619927   7.619928   6.349582
    36  H    9.054630   7.619927   7.544428   7.744126   6.523850
    37  H    9.221682   7.619926   7.744122   7.544428   6.523851
    38  C   10.115984   8.846626   8.972526   8.972526   7.544428
    39  H   10.209864   8.972525   9.221684   9.054631   7.619927
    40  H   11.037110   9.679288   9.755449   9.755449   8.440716
    41  H   10.059235   8.972526   9.054635   9.221684   7.619926
                   21         22         23         24         25
    21  H    0.000000
    22  H    1.747303   0.000000
    23  C    2.148263   2.148263   0.000000
    24  H    3.024610   2.468845   1.070000   0.000000
    25  H    2.468847   3.024610   1.070000   1.747303   0.000000
    26  C    2.732977   2.732978   1.540000   2.148263   2.148263
    27  H    2.514809   3.062245   2.148263   3.024610   2.468845
    28  H    3.062241   2.514809   2.148263   2.468847   3.024610
    29  C    4.154945   4.154944   2.514809   2.732977   2.732978
    30  H    4.668704   4.329401   2.732978   2.514809   3.062245
    31  H    4.329405   4.668704   2.732977   3.062241   2.514809
    32  C    5.142174   5.142175   3.875581   4.154945   4.154944
    33  H    5.029618   5.324486   4.154944   4.668704   4.329401
    34  H    5.324482   5.029618   4.154945   4.329405   4.668704
    35  C    6.523851   6.523850   5.029618   5.142174   5.142175
    36  H    6.862497   6.636322   5.142175   5.029618   5.324486
    37  H    6.636325   6.862497   5.142174   5.324482   5.029618
    38  C    7.619927   7.619928   6.349582   6.523851   6.523850
    39  H    7.544428   7.744126   6.523850   6.862497   6.636322
    40  H    8.553003   8.553003   7.165814   7.268360   7.268360
    41  H    7.744122   7.544428   6.523851   6.636325   6.862497
                   26         27         28         29         30
    26  C    0.000000
    27  H    1.070000   0.000000
    28  H    1.070000   1.747303   0.000000
    29  C    1.540000   2.148263   2.148263   0.000000
    30  H    2.148263   3.024610   2.468845   1.070000   0.000000
    31  H    2.148263   2.468847   3.024610   1.070000   1.747303
    32  C    2.514809   2.732977   2.732978   1.540000   2.148263
    33  H    2.732978   2.514809   3.062245   2.148263   3.024610
    34  H    2.732977   3.062241   2.514809   2.148263   2.468847
    35  C    3.875581   4.154945   4.154944   2.514809   2.732977
    36  H    4.154944   4.668704   4.329401   2.732978   2.514809
    37  H    4.154945   4.329405   4.668704   2.732977   3.062241
    38  C    5.029618   5.142174   5.142175   3.875581   4.154945
    39  H    5.142175   5.029618   5.324486   4.154944   4.668704
    40  H    5.935506   6.094128   6.094128   4.653783   4.810183
    41  H    5.142174   5.324482   5.029618   4.154945   4.329405
                   31         32         33         34         35
    31  H    0.000000
    32  C    2.148263   0.000000
    33  H    2.468845   1.070000   0.000000
    34  H    3.024610   1.070000   1.747303   0.000000
    35  C    2.732978   1.540000   2.148263   2.148263   0.000000
    36  H    3.062245   2.148263   3.024610   2.468845   1.070000
    37  H    2.514809   2.148263   2.468847   3.024610   1.070000
    38  C    4.154944   2.514809   2.732977   2.732978   1.540000
    39  H    4.329401   2.732978   2.514809   3.062245   2.148263
    40  H    4.810184   3.444314   3.710993   3.710992   2.148263
    41  H    4.668704   2.732977   3.062241   2.514809   2.148263
                   36         37         38         39         40
    36  H    0.000000
    37  H    1.747303   0.000000
    38  C    2.148263   2.148263   0.000000
    39  H    3.024610   2.468845   1.070000   0.000000
    40  H    2.468846   2.468846   1.070000   1.747303   0.000000
    41  H    2.468847   3.024610   1.070000   1.747303   1.747303
                   41
    41  H    0.000000
 Stoichiometry    C13H28
 Framework group  C1[X(C13H28)]
 Deg. of freedom   117
 Full point group                 C1      NOp   1
 Largest Abelian subgroup         C1      NOp   1
 Largest concise Abelian subgroup C1      NOp   1
                         Standard orientation:                         
 ---------------------------------------------------------------------
 Center     Atomic      Atomic             Coordinates (Angstroms)
 Number     Number       Type             X           Y           Z
 ---------------------------------------------------------------------
      1          6           0       -7.544427    0.402620    0.000295
      2          1           0       -7.543591    1.022014   -0.872202
      3          1           0       -7.545265    1.018754    0.875097
      4          1           0       -8.418078   -0.215142   -0.001696
      5          6           0       -6.287023   -0.486499   -0.000159
      6          1           0       -6.286883   -1.104511    0.873317
      7          1           0       -6.287164   -1.104017   -0.873985
      8          6           0       -5.029618    0.402620   -0.000111
      9          1           0       -5.029666    1.020404    0.873527
     10          1           0       -5.029571    1.020366   -0.873775
     11          6           0       -3.772214   -0.486499   -0.000023
     12          1           0       -3.772208   -1.104342   -0.873620
     13          1           0       -3.772219   -1.104186    0.873683
     14          6           0       -2.514809    0.402620   -0.000094
     15          1           0       -2.514820    1.020469    0.873498
     16          1           0       -2.514799    1.020301   -0.873804
     17          6           0       -1.257405   -0.486499    0.000006
     18          1           0       -1.257396   -1.104349   -0.873586
     19          1           0       -1.257414   -1.104179    0.873717
     20          6           0        0.000000    0.402620   -0.000067
     21          1           0       -0.000009    1.020469    0.873525
     22          1           0        0.000008    1.020301   -0.873778
     23          6           0        1.257405   -0.486499    0.000030
     24          1           0        1.257413   -1.104347   -0.873564
     25          1           0        1.257396   -1.104182    0.873739
     26          6           0        2.514809    0.402620   -0.000041
     27          1           0        2.514800    1.020466    0.873553
     28          1           0        2.514818    1.020304   -0.873750
     29          6           0        3.772214   -0.486499    0.000053
     30          1           0        3.772222   -1.104344   -0.873541
     31          1           0        3.772205   -1.104184    0.873761
     32          6           0        5.029618    0.402620   -0.000015
     33          1           0        5.029610    1.020464    0.873581
     34          1           0        5.029627    1.020306   -0.873722
     35          6           0        6.287023   -0.486499    0.000077
     36          1           0        6.287032   -1.104342   -0.873519
     37          1           0        6.287014   -1.104187    0.873783
     38          6           0        7.544428    0.402620    0.000012
     39          1           0        7.544419    1.020461    0.873609
     40          1           0        8.418079   -0.215145    0.000074
     41          1           0        7.544436    1.020309   -0.873694
 ---------------------------------------------------------------------
 Rotational constants (GHZ):           6.3024849           0.1204460           0.1193033
 Standard basis: CC-pVDZ (5D, 7F)
 There are   335 symmetry adapted cartesian basis functions of A   symmetry.
 There are   322 symmetry adapted basis functions of A   symmetry.
   322 basis functions,   625 primitive gaussians,   335 cartesian basis functions
    53 alpha electrons       53 beta electrons
       nuclear repulsion energy       760.0256862040 Hartrees.
 NAtoms=   41 NActive=   41 NUniq=   41 SFac= 1.00D+00 NAtFMM=   60 NAOKFM=F Big=F
 Integral buffers will be    131072 words long.
 Raffenetti 2 integral format.
 Two-electron integral symmetry is turned on.
 One-electron integrals computed using PRISM.
 NBasis=   322 RedAO= T EigKep=  1.39D-03  NBF=   322
 NBsUse=   322 1.00D-06 EigRej= -1.00D+00 NBFU=   322
 ExpMin= 1.22D-01 ExpMax= 6.67D+03 ExpMxC= 2.28D+02 IAcc=3 IRadAn=         5 AccDes= 0.00D+00
 Harris functional with IExCor=  402 and IRadAn=       5 diagonalized for initial guess.
 HarFok:  IExCor=  402 AccDes= 0.00D+00 IRadAn=         5 IDoV= 1 UseB2=F ITyADJ=14
 ICtDFT=  3500011 ScaDFX=  1.000000  1.000000  1.000000  1.000000
 FoFCou: FMM=F IPFlag=           0 FMFlag=      100000 FMFlg1=           0
         NFxFlg=           0 DoJE=T BraDBF=F KetDBF=T FulRan=T
         wScrn=  0.000000 ICntrl=       500 IOpCl=  0 I1Cent=   200000004 NGrid=           0
         NMat0=    1 NMatS0=      1 NMatT0=    0 NMatD0=    1 NMtDS0=    0 NMtDT0=    0
 Petite list used in FoFCou.
 Requested convergence on RMS density matrix=1.00D-08 within 128 cycles.
 Requested convergence on MAX density matrix=1.00D-06.
 Requested convergence on             energy=1.00D-06.
 No special actions if energy rises.
 Integral accuracy reduced to 1.0D-05 until final iterations.
 Initial convergence to 1.0D-05 achieved.  Increase integral accuracy.
 SCF Done:  E(RB3LYP) =  -512.257488426     A.U. after   11 cycles
            NFock= 11  Conv=0.71D-08     -V/T= 2.0062

 **********************************************************************

            Population analysis using the SCF density.

 **********************************************************************

 Orbital symmetries:
       Occupied  (A) (A) (A) (A) (A) (A) (A) (A) (A) (A) (A) (A)
                 (A) (A) (A) (A) (A) (A) (A) (A) (A) (A) (A) (A)
                 (A) (A) (A) (A) (A) (A) (A) (A) (A) (A) (A) (A)
                 (A) (A) (A) (A) (A) (A) (A) (A) (A) (A) (A) (A)
                 (A) (A) (A) (A) (A)
       Virtual   (A) (A) (A) (A) (A) (A) (A) (A) (A) (A) (A) (A)
                 (A) (A) (A) (A) (A) (A) (A) (A) (A) (A) (A) (A)
                 (A) (A) (A) (A) (A) (A) (A) (A) (A) (A) (A) (A)
                 (A) (A) (A) (A) (A) (A) (A) (A) (A) (A) (A) (A)
                 (A) (A) (A) (A) (A) (A) (A) (A) (A) (A) (A) (A)
                 (A) (A) (A) (A) (A) (A) (A) (A) (A) (A) (A) (A)
                 (A) (A) (A) (A) (A) (A) (A) (A) (A) (A) (A) (A)
                 (A) (A) (A) (A) (A) (A) (A) (A) (A) (A) (A) (A)
                 (A) (A) (A) (A) (A) (A) (A) (A) (A) (A) (A) (A)
                 (A) (A) (A) (A) (A) (A) (A) (A) (A) (A) (A) (A)
                 (A) (A) (A) (A) (A) (A) (A) (A) (A) (A) (A) (A)
                 (A) (A) (A) (A) (A) (A) (A) (A) (A) (A) (A) (A)
                 (A) (A) (A) (A) (A) (A) (A) (A) (A) (A) (A) (A)
                 (A) (A) (A) (A) (A) (A) (A) (A) (A) (A) (A) (A)
                 (A) (A) (A) (A) (A) (A) (A) (A) (A) (A) (A) (A)
                 (A) (A) (A) (A) (A) (A) (A) (A) (A) (A) (A) (A)
                 (A) (A) (A) (A) (A) (A) (A) (A) (A) (A) (A) (A)
                 (A) (A) (A) (A) (A) (A) (A) (A) (A) (A) (A) (A)
                 (A) (A) (A) (A) (A) (A) (A) (A) (A) (A) (A) (A)
                 (A) (A) (A) (A) (A) (A) (A) (A) (A) (A) (A) (A)
                 (A) (A) (A) (A) (A) (A) (A) (A) (A) (A) (A) (A)
                 (A) (A) (A) (A) (A) (A) (A) (A) (A) (A) (A) (A)
                 (A) (A) (A) (A) (A)
 The electronic state is 1-A.
 Alpha  occ. eigenvalues --  -10.16840 -10.16840 -10.16580 -10.16580 -10.16523
 Alpha  occ. eigenvalues --  -10.16523 -10.16498 -10.16498 -10.16484 -10.16475
 Alpha  occ. eigenvalues --  -10.16463 -10.16241 -10.16241  -0.81438  -0.80452
 Alpha  occ. eigenvalues --   -0.78771  -0.76461  -0.73579  -0.70209  -0.66488
 Alpha  occ. eigenvalues --   -0.62687  -0.59417  -0.58332  -0.57943  -0.57352
 Alpha  occ. eigenvalues --   -0.57223  -0.49274  -0.48360  -0.46844  -0.44843
 Alpha  occ. eigenvalues --   -0.43072  -0.42495  -0.42301  -0.41711  -0.39992
 Alpha  occ. eigenvalues --   -0.39945  -0.38669  -0.37610  -0.37573  -0.35501
 Alpha  occ. eigenvalues --   -0.35482  -0.34275  -0.34009  -0.33860  -0.33196
 Alpha  occ. eigenvalues --   -0.33075  -0.32929  -0.32909  -0.32866  -0.32469
 Alpha  occ. eigenvalues --   -0.32284  -0.29816  -0.26393
 Alpha virt. eigenvalues --    0.05891   0.06328   0.07008   0.07969   0.08051
 Alpha virt. eigenvalues --    0.08661   0.09209   0.09510   0.09764   0.11165
 Alpha virt. eigenvalues --    0.11652   0.11887   0.13842   0.14024   0.14526
 Alpha virt. eigenvalues --    0.15869   0.16014   0.16019   0.16159   0.16250
 Alpha virt. eigenvalues --    0.16882   0.17065   0.18745   0.19370   0.19470
 Alpha virt. eigenvalues --    0.19720   0.20287   0.20511   0.21455   0.21820
 Alpha virt. eigenvalues --    0.22219   0.22230   0.23316   0.24095   0.24971
 Alpha virt. eigenvalues --    0.26267   0.26289   0.27927   0.32407   0.32619
 Alpha virt. eigenvalues --    0.36249   0.40018   0.41347   0.41836   0.42683
 Alpha virt. eigenvalues --    0.43028   0.43578   0.43756   0.44258   0.44709
 Alpha virt. eigenvalues --    0.45157   0.46937   0.47886   0.48381   0.50457
 Alpha virt. eigenvalues --    0.52972   0.53596   0.55094   0.56144   0.58097
 Alpha virt. eigenvalues --    0.60947   0.61465   0.63139   0.63738   0.64639
 Alpha virt. eigenvalues --    0.64901   0.65397   0.65561   0.66120   0.66444
 Alpha virt. eigenvalues --    0.66689   0.66690   0.67171   0.67267   0.67272
 Alpha virt. eigenvalues --    0.67901   0.67929   0.68256   0.68288   0.68635
 Alpha virt. eigenvalues --    0.68650   0.69238   0.69249   0.69504   0.69585
 Alpha virt. eigenvalues --    0.70134   0.70360   0.70815   0.71112   0.72615
 Alpha virt. eigenvalues --    0.72897   0.73058   0.73263   0.73459   0.73549
 Alpha virt. eigenvalues --    0.75247   0.75257   0.75992   0.76920   0.77038
 Alpha virt. eigenvalues --    0.78279   0.79745   0.79919   0.85399   0.86824
 Alpha virt. eigenvalues --    0.86982   0.89194   0.90831   0.92397   0.94163
 Alpha virt. eigenvalues --    1.01906   1.06583   1.10819   1.14504   1.14651
 Alpha virt. eigenvalues --    1.18607   1.20959   1.21249   1.21730   1.21984
 Alpha virt. eigenvalues --    1.22021   1.22104   1.22315   1.22509   1.22986
 Alpha virt. eigenvalues --    1.23402   1.23688   1.23913   1.24323   1.24399
 Alpha virt. eigenvalues --    1.26928   1.29008   1.30227   1.35031   1.35307
 Alpha virt. eigenvalues --    1.40790   1.43097   1.43896   1.43901   1.46689
 Alpha virt. eigenvalues --    1.47580   1.48087   1.48533   1.49532   1.49698
 Alpha virt. eigenvalues --    1.55649   1.59567   1.60490   1.62690   1.63408
 Alpha virt. eigenvalues --    1.63463   1.64248   1.64481   1.64733   1.64854
 Alpha virt. eigenvalues --    1.65335   1.65416   1.66040   1.66116   1.67569
 Alpha virt. eigenvalues --    1.67903   1.68294   1.68380   1.68404   1.69945
 Alpha virt. eigenvalues --    1.69997   1.70305   1.70399   1.70646   1.70917
 Alpha virt. eigenvalues --    1.72151   1.72291   1.73149   1.73199   1.73230
 Alpha virt. eigenvalues --    1.73314   1.73600   1.74363   1.74711   1.74800
 Alpha virt. eigenvalues --    1.74925   1.75047   1.75355   1.75812   1.76442
 Alpha virt. eigenvalues --    1.76562   1.76747   1.77486   1.78780   1.80094
 Alpha virt. eigenvalues --    1.81549   1.81561   1.82838   1.83536   1.84747
 Alpha virt. eigenvalues --    1.85493   1.86356   1.87985   1.88133   1.89228
 Alpha virt. eigenvalues --    1.92037   1.95513   1.96855   1.97767   1.98631
 Alpha virt. eigenvalues --    2.01031   2.02513   2.02572   2.05465   2.08319
 Alpha virt. eigenvalues --    2.09052   2.09587   2.11867   2.12666   2.15400
 Alpha virt. eigenvalues --    2.16114   2.16794   2.20551   2.21876   2.23926
 Alpha virt. eigenvalues --    2.24671   2.26172   2.27628   2.29179   2.29641
 Alpha virt. eigenvalues --    2.32779   2.32879   2.33899   2.34992   2.35463
 Alpha virt. eigenvalues --    2.35830   2.36143   2.36785   2.38332   2.38862
 Alpha virt. eigenvalues --    2.38870   2.40590   2.40691   2.41603   2.41763
 Alpha virt. eigenvalues --    2.43743   2.46356   2.47487   2.49537   2.51003
 Alpha virt. eigenvalues --    2.51492   2.51591   2.51635   2.52720   2.53030
 Alpha virt. eigenvalues --    2.55388   2.56037   2.58208   2.59540   2.61606
 Alpha virt. eigenvalues --    2.62076   2.64920   2.65756   2.66159   2.66334
 Alpha virt. eigenvalues --    2.67434   2.67827   2.68008   2.72616   2.73959
 Alpha virt. eigenvalues --    2.80348   2.81005   2.85999   2.86134
          Condensed to atoms (all electrons):
               1          2          3          4          5          6
     1  C    4.469741   0.391273   0.391254   0.372974   0.438148  -0.024742
     2  H    0.391273   0.685657  -0.031653  -0.031079  -0.022285   0.009539
     3  H    0.391254  -0.031653   0.685662  -0.031090  -0.022230  -0.009589
     4  H    0.372974  -0.031079  -0.031090   0.704366  -0.009291  -0.004772
     5  C    0.438148  -0.022285  -0.022230  -0.009291   4.550125   0.372398
     6  H   -0.024742   0.009539  -0.009589  -0.004772   0.372398   0.730163
     7  H   -0.024745  -0.009517   0.009539  -0.004845   0.372383  -0.046123
     8  C   -0.041250  -0.004687  -0.004657   0.004967   0.443084  -0.022059
     9  H   -0.004792  -0.002201   0.007243   0.000080  -0.027166  -0.012671
    10  H   -0.004828   0.007259  -0.002194   0.000081  -0.027109   0.010770
    11  C    0.004804   0.000561   0.000557  -0.000421  -0.039486  -0.004266
    12  H    0.000297  -0.000042   0.000052   0.000007  -0.005162  -0.002469
    13  H    0.000297   0.000052  -0.000042   0.000007  -0.005166   0.007578
    14  C   -0.000256   0.000008   0.000008   0.000008   0.004573   0.000424
    15  H    0.000007   0.000004  -0.000010   0.000001   0.000330  -0.000039
    16  H    0.000007  -0.000010   0.000004   0.000001   0.000330   0.000042
    17  C    0.000003   0.000001   0.000001   0.000000  -0.000229   0.000016
    18  H    0.000000   0.000000   0.000000   0.000000   0.000010   0.000005
    19  H    0.000000   0.000000   0.000000   0.000000   0.000010  -0.000012
    20  C    0.000000   0.000000   0.000000   0.000000   0.000002   0.000000
    21  H    0.000000   0.000000   0.000000   0.000000   0.000000   0.000000
    22  H    0.000000   0.000000   0.000000   0.000000   0.000000   0.000000
    23  C    0.000000   0.000000   0.000000   0.000000   0.000000   0.000000
    24  H    0.000000   0.000000   0.000000   0.000000   0.000000   0.000000
    25  H    0.000000   0.000000   0.000000   0.000000   0.000000   0.000000
    26  C    0.000000   0.000000   0.000000   0.000000   0.000000   0.000000
    27  H    0.000000   0.000000   0.000000   0.000000   0.000000   0.000000
    28  H    0.000000   0.000000   0.000000   0.000000   0.000000   0.000000
    29  C    0.000000   0.000000   0.000000   0.000000   0.000000   0.000000
    30  H    0.000000   0.000000   0.000000   0.000000   0.000000   0.000000
    31  H    0.000000   0.000000   0.000000   0.000000   0.000000   0.000000
    32  C    0.000000   0.000000   0.000000   0.000000   0.000000   0.000000
    33  H    0.000000   0.000000   0.000000   0.000000   0.000000   0.000000
    34  H    0.000000   0.000000   0.000000   0.000000   0.000000   0.000000
    35  C    0.000000   0.000000   0.000000   0.000000   0.000000   0.000000
    36  H    0.000000   0.000000   0.000000   0.000000   0.000000   0.000000
    37  H    0.000000   0.000000   0.000000   0.000000   0.000000   0.000000
    38  C    0.000000   0.000000   0.000000   0.000000   0.000000   0.000000
    39  H    0.000000   0.000000   0.000000   0.000000   0.000000   0.000000
    40  H    0.000000   0.000000   0.000000   0.000000   0.000000   0.000000
    41  H    0.000000   0.000000   0.000000   0.000000   0.000000   0.000000
               7          8          9         10         11         12
     1  C   -0.024745  -0.041250  -0.004792  -0.004828   0.004804   0.000297
     2  H   -0.009517  -0.004687  -0.002201   0.007259   0.000561  -0.000042
     3  H    0.009539  -0.004657   0.007243  -0.002194   0.000557   0.000052
     4  H   -0.004845   0.004967   0.000080   0.000081  -0.000421   0.000007
     5  C    0.372383   0.443084  -0.027166  -0.027109  -0.039486  -0.005162
     6  H   -0.046123  -0.022059  -0.012671   0.010770  -0.004266  -0.002469
     7  H    0.730151  -0.022030   0.010771  -0.012680  -0.004260   0.007575
     8  C   -0.022030   4.561924   0.369929   0.369916   0.430570  -0.023447
     9  H    0.010771   0.369929   0.736919  -0.048074  -0.021800   0.010819
    10  H   -0.012680   0.369916  -0.048074   0.736874  -0.021798  -0.012705
    11  C   -0.004260   0.430570  -0.021800  -0.021798   4.565851   0.367269
    12  H    0.007575  -0.023447   0.010819  -0.012705   0.367269   0.737031
    13  H   -0.002466  -0.023449  -0.012708   0.010818   0.367276  -0.048142
    14  C    0.000423  -0.038799  -0.004533  -0.004536   0.431618  -0.022133
    15  H    0.000041  -0.005167   0.007567  -0.002494  -0.022860   0.010826
    16  H   -0.000039  -0.005170  -0.002493   0.007569  -0.022861  -0.012750
    17  C    0.000016   0.004245   0.000438   0.000438  -0.039711  -0.004834
    18  H   -0.000012   0.000379   0.000042  -0.000037  -0.005044   0.007567
    19  H    0.000005   0.000379  -0.000037   0.000042  -0.005045  -0.002501
    20  C    0.000000  -0.000227   0.000013   0.000013   0.004325   0.000409
    21  H    0.000000   0.000011  -0.000012   0.000005   0.000394   0.000042
    22  H    0.000000   0.000011   0.000005  -0.000012   0.000394  -0.000038
    23  C    0.000000   0.000002   0.000000   0.000000  -0.000228   0.000013
    24  H    0.000000   0.000000   0.000000   0.000000   0.000012  -0.000012
    25  H    0.000000   0.000000   0.000000   0.000000   0.000012   0.000005
    26  C    0.000000   0.000000   0.000000   0.000000   0.000002   0.000000
    27  H    0.000000   0.000000   0.000000   0.000000   0.000000   0.000000
    28  H    0.000000   0.000000   0.000000   0.000000   0.000000   0.000000
    29  C    0.000000   0.000000   0.000000   0.000000   0.000000   0.000000
    30  H    0.000000   0.000000   0.000000   0.000000   0.000000   0.000000
    31  H    0.000000   0.000000   0.000000   0.000000   0.000000   0.000000
    32  C    0.000000   0.000000   0.000000   0.000000   0.000000   0.000000
    33  H    0.000000   0.000000   0.000000   0.000000   0.000000   0.000000
    34  H    0.000000   0.000000   0.000000   0.000000   0.000000   0.000000
    35  C    0.000000   0.000000   0.000000   0.000000   0.000000   0.000000
    36  H    0.000000   0.000000   0.000000   0.000000   0.000000   0.000000
    37  H    0.000000   0.000000   0.000000   0.000000   0.000000   0.000000
    38  C    0.000000   0.000000   0.000000   0.000000   0.000000   0.000000
    39  H    0.000000   0.000000   0.000000   0.000000   0.000000   0.000000
    40  H    0.000000   0.000000   0.000000   0.000000   0.000000   0.000000
    41  H    0.000000   0.000000   0.000000   0.000000   0.000000   0.000000
              13         14         15         16         17         18
     1  C    0.000297  -0.000256   0.000007   0.000007   0.000003   0.000000
     2  H    0.000052   0.000008   0.000004  -0.000010   0.000001   0.000000
     3  H   -0.000042   0.000008  -0.000010   0.000004   0.000001   0.000000
     4  H    0.000007   0.000008   0.000001   0.000001   0.000000   0.000000
     5  C   -0.005166   0.004573   0.000330   0.000330  -0.000229   0.000010
     6  H    0.007578   0.000424  -0.000039   0.000042   0.000016   0.000005
     7  H   -0.002466   0.000423   0.000041  -0.000039   0.000016  -0.000012
     8  C   -0.023449  -0.038799  -0.005167  -0.005170   0.004245   0.000379
     9  H   -0.012708  -0.004533   0.007567  -0.002493   0.000438   0.000042
    10  H    0.010818  -0.004536  -0.002494   0.007569   0.000438  -0.000037
    11  C    0.367276   0.431618  -0.022860  -0.022861  -0.039711  -0.005044
    12  H   -0.048142  -0.022133   0.010826  -0.012750  -0.004834   0.007567
    13  H    0.737026  -0.022133  -0.012750   0.010826  -0.004834  -0.002501
    14  C   -0.022133   4.567202   0.366586   0.366588   0.431732  -0.022560
    15  H   -0.012750   0.366586   0.737396  -0.048242  -0.022104   0.010837
    16  H    0.010826   0.366588  -0.048242   0.737396  -0.022104  -0.012747
    17  C   -0.004834   0.431732  -0.022104  -0.022104   4.566775   0.366384
    18  H   -0.002501  -0.022560   0.010837  -0.012747   0.366384   0.737553
    19  H    0.007567  -0.022560  -0.012747   0.010837   0.366385  -0.048246
    20  C    0.000409  -0.040017  -0.004932  -0.004932   0.432407  -0.022335
    21  H   -0.000038  -0.005038   0.007564  -0.002504  -0.022326   0.010838
    22  H    0.000042  -0.005038  -0.002504   0.007564  -0.022326  -0.012749
    23  C    0.000013   0.004338   0.000404   0.000404  -0.040105  -0.004976
    24  H    0.000005   0.000396   0.000042  -0.000038  -0.004976   0.007567
    25  H   -0.000012   0.000396  -0.000038   0.000042  -0.004976  -0.002503
    26  C    0.000000  -0.000229   0.000012   0.000012   0.004338   0.000396
    27  H    0.000000   0.000012  -0.000012   0.000005   0.000404   0.000042
    28  H    0.000000   0.000012   0.000005  -0.000012   0.000404  -0.000038
    29  C    0.000000   0.000002   0.000000   0.000000  -0.000228   0.000012
    30  H    0.000000   0.000000   0.000000   0.000000   0.000013  -0.000012
    31  H    0.000000   0.000000   0.000000   0.000000   0.000013   0.000005
    32  C    0.000000   0.000000   0.000000   0.000000   0.000002   0.000000
    33  H    0.000000   0.000000   0.000000   0.000000   0.000000   0.000000
    34  H    0.000000   0.000000   0.000000   0.000000   0.000000   0.000000
    35  C    0.000000   0.000000   0.000000   0.000000   0.000000   0.000000
    36  H    0.000000   0.000000   0.000000   0.000000   0.000000   0.000000
    37  H    0.000000   0.000000   0.000000   0.000000   0.000000   0.000000
    38  C    0.000000   0.000000   0.000000   0.000000   0.000000   0.000000
    39  H    0.000000   0.000000   0.000000   0.000000   0.000000   0.000000
    40  H    0.000000   0.000000   0.000000   0.000000   0.000000   0.000000
    41  H    0.000000   0.000000   0.000000   0.000000   0.000000   0.000000
              19         20         21         22         23         24
     1  C    0.000000   0.000000   0.000000   0.000000   0.000000   0.000000
     2  H    0.000000   0.000000   0.000000   0.000000   0.000000   0.000000
     3  H    0.000000   0.000000   0.000000   0.000000   0.000000   0.000000
     4  H    0.000000   0.000000   0.000000   0.000000   0.000000   0.000000
     5  C    0.000010   0.000002   0.000000   0.000000   0.000000   0.000000
     6  H   -0.000012   0.000000   0.000000   0.000000   0.000000   0.000000
     7  H    0.000005   0.000000   0.000000   0.000000   0.000000   0.000000
     8  C    0.000379  -0.000227   0.000011   0.000011   0.000002   0.000000
     9  H   -0.000037   0.000013  -0.000012   0.000005   0.000000   0.000000
    10  H    0.000042   0.000013   0.000005  -0.000012   0.000000   0.000000
    11  C   -0.005045   0.004325   0.000394   0.000394  -0.000228   0.000012
    12  H   -0.002501   0.000409   0.000042  -0.000038   0.000013  -0.000012
    13  H    0.007567   0.000409  -0.000038   0.000042   0.000013   0.000005
    14  C   -0.022560  -0.040017  -0.005038  -0.005038   0.004338   0.000396
    15  H   -0.012747  -0.004932   0.007564  -0.002504   0.000404   0.000042
    16  H    0.010837  -0.004932  -0.002504   0.007564   0.000404  -0.000038
    17  C    0.366385   0.432407  -0.022326  -0.022326  -0.040105  -0.004976
    18  H   -0.048246  -0.022335   0.010838  -0.012749  -0.004976   0.007567
    19  H    0.737553  -0.022334  -0.012749   0.010838  -0.004976  -0.002503
    20  C   -0.022334   4.566471   0.366183   0.366183   0.432407  -0.022335
    21  H   -0.012749   0.366183   0.737600  -0.048270  -0.022326   0.010838
    22  H    0.010838   0.366183  -0.048270   0.737600  -0.022326  -0.012749
    23  C   -0.004976   0.432407  -0.022326  -0.022326   4.566775   0.366384
    24  H   -0.002503  -0.022335   0.010838  -0.012749   0.366384   0.737553
    25  H    0.007567  -0.022335  -0.012749   0.010838   0.366384  -0.048246
    26  C    0.000396  -0.040017  -0.005038  -0.005038   0.431732  -0.022560
    27  H   -0.000038  -0.004932   0.007564  -0.002504  -0.022104   0.010837
    28  H    0.000042  -0.004932  -0.002504   0.007564  -0.022104  -0.012747
    29  C    0.000012   0.004325   0.000394   0.000394  -0.039711  -0.005044
    30  H    0.000005   0.000409   0.000042  -0.000038  -0.004834   0.007567
    31  H   -0.000012   0.000409  -0.000038   0.000042  -0.004834  -0.002501
    32  C    0.000000  -0.000227   0.000011   0.000011   0.004245   0.000379
    33  H    0.000000   0.000013  -0.000012   0.000005   0.000438   0.000042
    34  H    0.000000   0.000013   0.000005  -0.000012   0.000438  -0.000037
    35  C    0.000000   0.000002   0.000000   0.000000  -0.000229   0.000010
    36  H    0.000000   0.000000   0.000000   0.000000   0.000016  -0.000012
    37  H    0.000000   0.000000   0.000000   0.000000   0.000016   0.000005
    38  C    0.000000   0.000000   0.000000   0.000000   0.000003   0.000000
    39  H    0.000000   0.000000   0.000000   0.000000   0.000001   0.000000
    40  H    0.000000   0.000000   0.000000   0.000000   0.000000   0.000000
    41  H    0.000000   0.000000   0.000000   0.000000   0.000001   0.000000
              25         26         27         28         29         30
     1  C    0.000000   0.000000   0.000000   0.000000   0.000000   0.000000
     2  H    0.000000   0.000000   0.000000   0.000000   0.000000   0.000000
     3  H    0.000000   0.000000   0.000000   0.000000   0.000000   0.000000
     4  H    0.000000   0.000000   0.000000   0.000000   0.000000   0.000000
     5  C    0.000000   0.000000   0.000000   0.000000   0.000000   0.000000
     6  H    0.000000   0.000000   0.000000   0.000000   0.000000   0.000000
     7  H    0.000000   0.000000   0.000000   0.000000   0.000000   0.000000
     8  C    0.000000   0.000000   0.000000   0.000000   0.000000   0.000000
     9  H    0.000000   0.000000   0.000000   0.000000   0.000000   0.000000
    10  H    0.000000   0.000000   0.000000   0.000000   0.000000   0.000000
    11  C    0.000012   0.000002   0.000000   0.000000   0.000000   0.000000
    12  H    0.000005   0.000000   0.000000   0.000000   0.000000   0.000000
    13  H   -0.000012   0.000000   0.000000   0.000000   0.000000   0.000000
    14  C    0.000396  -0.000229   0.000012   0.000012   0.000002   0.000000
    15  H   -0.000038   0.000012  -0.000012   0.000005   0.000000   0.000000
    16  H    0.000042   0.000012   0.000005  -0.000012   0.000000   0.000000
    17  C   -0.004976   0.004338   0.000404   0.000404  -0.000228   0.000013
    18  H   -0.002503   0.000396   0.000042  -0.000038   0.000012  -0.000012
    19  H    0.007567   0.000396  -0.000038   0.000042   0.000012   0.000005
    20  C   -0.022335  -0.040017  -0.004932  -0.004932   0.004325   0.000409
    21  H   -0.012749  -0.005038   0.007564  -0.002504   0.000394   0.000042
    22  H    0.010838  -0.005038  -0.002504   0.007564   0.000394  -0.000038
    23  C    0.366384   0.431732  -0.022104  -0.022104  -0.039711  -0.004834
    24  H   -0.048246  -0.022560   0.010837  -0.012747  -0.005044   0.007567
    25  H    0.737553  -0.022560  -0.012747   0.010837  -0.005044  -0.002501
    26  C   -0.022560   4.567202   0.366587   0.366587   0.431618  -0.022133
    27  H   -0.012747   0.366587   0.737396  -0.048242  -0.022860   0.010826
    28  H    0.010837   0.366587  -0.048242   0.737396  -0.022860  -0.012750
    29  C   -0.005044   0.431618  -0.022860  -0.022860   4.565851   0.367272
    30  H   -0.002501  -0.022133   0.010826  -0.012750   0.367272   0.737029
    31  H    0.007567  -0.022133  -0.012750   0.010826   0.367272  -0.048142
    32  C    0.000379  -0.038799  -0.005168  -0.005168   0.430570  -0.023448
    33  H   -0.000037  -0.004535   0.007568  -0.002494  -0.021799   0.010818
    34  H    0.000042  -0.004535  -0.002494   0.007568  -0.021799  -0.012706
    35  C    0.000010   0.004573   0.000330   0.000330  -0.039486  -0.005164
    36  H    0.000005   0.000423   0.000041  -0.000039  -0.004263   0.007577
    37  H   -0.000012   0.000423  -0.000039   0.000041  -0.004263  -0.002468
    38  C    0.000000  -0.000256   0.000007   0.000007   0.004804   0.000297
    39  H    0.000000   0.000008  -0.000010   0.000004   0.000559   0.000052
    40  H    0.000000   0.000008   0.000001   0.000001  -0.000421   0.000007
    41  H    0.000000   0.000008   0.000004  -0.000010   0.000559  -0.000042
              31         32         33         34         35         36
     1  C    0.000000   0.000000   0.000000   0.000000   0.000000   0.000000
     2  H    0.000000   0.000000   0.000000   0.000000   0.000000   0.000000
     3  H    0.000000   0.000000   0.000000   0.000000   0.000000   0.000000
     4  H    0.000000   0.000000   0.000000   0.000000   0.000000   0.000000
     5  C    0.000000   0.000000   0.000000   0.000000   0.000000   0.000000
     6  H    0.000000   0.000000   0.000000   0.000000   0.000000   0.000000
     7  H    0.000000   0.000000   0.000000   0.000000   0.000000   0.000000
     8  C    0.000000   0.000000   0.000000   0.000000   0.000000   0.000000
     9  H    0.000000   0.000000   0.000000   0.000000   0.000000   0.000000
    10  H    0.000000   0.000000   0.000000   0.000000   0.000000   0.000000
    11  C    0.000000   0.000000   0.000000   0.000000   0.000000   0.000000
    12  H    0.000000   0.000000   0.000000   0.000000   0.000000   0.000000
    13  H    0.000000   0.000000   0.000000   0.000000   0.000000   0.000000
    14  C    0.000000   0.000000   0.000000   0.000000   0.000000   0.000000
    15  H    0.000000   0.000000   0.000000   0.000000   0.000000   0.000000
    16  H    0.000000   0.000000   0.000000   0.000000   0.000000   0.000000
    17  C    0.000013   0.000002   0.000000   0.000000   0.000000   0.000000
    18  H    0.000005   0.000000   0.000000   0.000000   0.000000   0.000000
    19  H   -0.000012   0.000000   0.000000   0.000000   0.000000   0.000000
    20  C    0.000409  -0.000227   0.000013   0.000013   0.000002   0.000000
    21  H   -0.000038   0.000011  -0.000012   0.000005   0.000000   0.000000
    22  H    0.000042   0.000011   0.000005  -0.000012   0.000000   0.000000
    23  C   -0.004834   0.004245   0.000438   0.000438  -0.000229   0.000016
    24  H   -0.002501   0.000379   0.000042  -0.000037   0.000010  -0.000012
    25  H    0.007567   0.000379  -0.000037   0.000042   0.000010   0.000005
    26  C   -0.022133  -0.038799  -0.004535  -0.004535   0.004573   0.000423
    27  H   -0.012750  -0.005168   0.007568  -0.002494   0.000330   0.000041
    28  H    0.010826  -0.005168  -0.002494   0.007568   0.000330  -0.000039
    29  C    0.367272   0.430570  -0.021799  -0.021799  -0.039486  -0.004263
    30  H   -0.048142  -0.023448   0.010818  -0.012706  -0.005164   0.007577
    31  H    0.737029  -0.023448  -0.012706   0.010818  -0.005164  -0.002468
    32  C   -0.023448   4.561924   0.369923   0.369923   0.443084  -0.022044
    33  H   -0.012706   0.369923   0.736897  -0.048074  -0.027138   0.010771
    34  H    0.010818   0.369923  -0.048074   0.736897  -0.027138  -0.012676
    35  C   -0.005164   0.443084  -0.027138  -0.027138   4.550125   0.372391
    36  H   -0.002468  -0.022044   0.010771  -0.012676   0.372391   0.730157
    37  H    0.007577  -0.022044  -0.012676   0.010771   0.372391  -0.046123
    38  C    0.000297  -0.041250  -0.004810  -0.004810   0.438148  -0.024744
    39  H   -0.000042  -0.004672   0.007251  -0.002197  -0.022257   0.009539
    40  H    0.000007   0.004967   0.000080   0.000080  -0.009291  -0.004809
    41  H    0.000052  -0.004672  -0.002197   0.007251  -0.022257  -0.009553
              37         38         39         40         41
     1  C    0.000000   0.000000   0.000000   0.000000   0.000000
     2  H    0.000000   0.000000   0.000000   0.000000   0.000000
     3  H    0.000000   0.000000   0.000000   0.000000   0.000000
     4  H    0.000000   0.000000   0.000000   0.000000   0.000000
     5  C    0.000000   0.000000   0.000000   0.000000   0.000000
     6  H    0.000000   0.000000   0.000000   0.000000   0.000000
     7  H    0.000000   0.000000   0.000000   0.000000   0.000000
     8  C    0.000000   0.000000   0.000000   0.000000   0.000000
     9  H    0.000000   0.000000   0.000000   0.000000   0.000000
    10  H    0.000000   0.000000   0.000000   0.000000   0.000000
    11  C    0.000000   0.000000   0.000000   0.000000   0.000000
    12  H    0.000000   0.000000   0.000000   0.000000   0.000000
    13  H    0.000000   0.000000   0.000000   0.000000   0.000000
    14  C    0.000000   0.000000   0.000000   0.000000   0.000000
    15  H    0.000000   0.000000   0.000000   0.000000   0.000000
    16  H    0.000000   0.000000   0.000000   0.000000   0.000000
    17  C    0.000000   0.000000   0.000000   0.000000   0.000000
    18  H    0.000000   0.000000   0.000000   0.000000   0.000000
    19  H    0.000000   0.000000   0.000000   0.000000   0.000000
    20  C    0.000000   0.000000   0.000000   0.000000   0.000000
    21  H    0.000000   0.000000   0.000000   0.000000   0.000000
    22  H    0.000000   0.000000   0.000000   0.000000   0.000000
    23  C    0.000016   0.000003   0.000001   0.000000   0.000001
    24  H    0.000005   0.000000   0.000000   0.000000   0.000000
    25  H   -0.000012   0.000000   0.000000   0.000000   0.000000
    26  C    0.000423  -0.000256   0.000008   0.000008   0.000008
    27  H   -0.000039   0.000007  -0.000010   0.000001   0.000004
    28  H    0.000041   0.000007   0.000004   0.000001  -0.000010
    29  C   -0.004263   0.004804   0.000559  -0.000421   0.000559
    30  H   -0.002468   0.000297   0.000052   0.000007  -0.000042
    31  H    0.007577   0.000297  -0.000042   0.000007   0.000052
    32  C   -0.022044  -0.041250  -0.004672   0.004967  -0.004672
    33  H   -0.012676  -0.004810   0.007251   0.000080  -0.002197
    34  H    0.010771  -0.004810  -0.002197   0.000080   0.007251
    35  C    0.372391   0.438148  -0.022257  -0.009291  -0.022257
    36  H   -0.046123  -0.024744   0.009539  -0.004809  -0.009553
    37  H    0.730157  -0.024744  -0.009553  -0.004808   0.009539
    38  C   -0.024744   4.469741   0.391263   0.372974   0.391263
    39  H   -0.009553   0.391263   0.685659  -0.031084  -0.031653
    40  H   -0.004808   0.372974  -0.031084   0.704366  -0.031084
    41  H    0.009539   0.391263  -0.031653  -0.031084   0.685659
 Mulliken charges:
               1
     1  C    0.031807
     2  H    0.007121
     3  H    0.007145
     4  H   -0.000992
     5  C   -0.023270
     6  H   -0.004191
     7  H   -0.004186
     8  C    0.005521
     9  H   -0.007340
    10  H   -0.007319
    11  C    0.014135
    12  H   -0.007677
    13  H   -0.007675
    14  C    0.013505
    15  H   -0.007725
    16  H   -0.007726
    17  C    0.014737
    18  H   -0.007879
    19  H   -0.007879
    20  C    0.015555
    21  H   -0.007889
    22  H   -0.007889
    23  C    0.014737
    24  H   -0.007879
    25  H   -0.007879
    26  C    0.013505
    27  H   -0.007725
    28  H   -0.007725
    29  C    0.014135
    30  H   -0.007676
    31  H   -0.007676
    32  C    0.005521
    33  H   -0.007330
    34  H   -0.007330
    35  C   -0.023270
    36  H   -0.004189
    37  H   -0.004189
    38  C    0.031808
    39  H    0.007133
    40  H   -0.000992
    41  H    0.007133
 Sum of Mulliken charges =   0.00000
 Mulliken charges with hydrogens summed into heavy atoms:
               1
     1  C    0.045081
     5  C   -0.031648
     8  C   -0.009139
    11  C   -0.001218
    14  C   -0.001945
    17  C   -0.001021
    20  C   -0.000223
    23  C   -0.001021
    26  C   -0.001945
    29  C   -0.001218
    32  C   -0.009139
    35  C   -0.031648
    38  C    0.045082
 Electronic spatial extent (au):  <R**2>=           9156.7907
 Charge=              0.0000 electrons
 Dipole moment (field-independent basis, Debye):
    X=              0.0000    Y=             -0.0812    Z=              0.0000  Tot=              0.0812
 Quadrupole moment (field-independent basis, Debye-Ang):
   XX=            -93.6686   YY=            -89.3763   ZZ=            -85.5798
   XY=              0.0000   XZ=              0.0001   YZ=              0.0001
 Traceless Quadrupole moment (field-independent basis, Debye-Ang):
   XX=             -4.1270   YY=              0.1652   ZZ=              3.9618
   XY=              0.0000   XZ=              0.0001   YZ=              0.0001
 Octapole moment (field-independent basis, Debye-Ang**2):
  XXX=              0.0000  YYY=             -0.0183  ZZZ=              0.0020  XYY=              0.0000
  XXY=            -10.8337  XXZ=             -0.0020  XZZ=              0.0000  YZZ=              0.2579
  YYZ=             -0.0014  XYZ=              0.0009
 Hexadecapole moment (field-independent basis, Debye-Ang**3):
 XXXX=         -12886.5616 YYYY=           -321.5901 ZZZZ=           -179.3619 XXXY=              0.0000
 XXXZ=              0.0365 YYYX=              0.0000 YYYZ=             -0.0023 ZZZX=             -0.0167
 ZZZY=              0.0014 XXYY=          -2123.7774 XXZZ=          -2029.5265 YYZZ=            -77.7352
 XXYZ=              0.0083 YYXZ=              0.0104 ZZXY=              0.0000
 N-N= 7.600256862040D+02 E-N=-2.704188760125D+03  KE= 5.091093784176D+02
 Calling FoFJK, ICntrl=      2127 FMM=F ISym2X=0 I1Cent= 0 IOpClX= 0 NMat=1 NMatS=1 NMatT=0.
 ***** Axes restored to original set *****
 -------------------------------------------------------------------
 Center     Atomic                   Forces (Hartrees/Bohr)
 Number     Number              X              Y              Z
 -------------------------------------------------------------------
      1        6          -0.030340457    0.003939000   -0.006791184
      2        1           0.010678385   -0.020019510    0.000111524
      3        1           0.010681336    0.009898841    0.017400515
      4        1           0.012435231    0.009830841   -0.017011075
[...]
 3,-0.00031351,-0.00051727,0.00005407,0.00042633,0.00078503,0.00029720,
 -0.00007649,0.00147588,0.00050087,0.08018618,-0.26781212,0.00209094,0.
 00468326,-0.01401365,-0.00033061,-0.08732055,0.29215749,0.00000012,0.0
 0000008,0.00000014,-0.00000007,0.,0.00000002,-0.00000015,-0.00000009,-
 0.00000014,0.00000001,0.00000004,-0.00000005,-0.00000012,-0.00000005,0
 .00000015,0.00000007,0.00000014,0.00000010,-0.00000003,-0.00000018,-0.
 00000026,0.00000037,0.00000019,0.00000044,-0.00000033,-0.00000017,-0.0
 0000033,-0.00000020,0.00000009,-0.00000004,-0.00000021,-0.00000040,0.0
 0000036,0.00000008,-0.00000037,-0.00000048,0.00000020,0.00000045,0.000
 00022,0.00000033,0.00000045,0.00000120,-0.00000084,-0.00000036,-0.0000
 0065,-0.00000079,0.00000028,-0.00000009,0.00000077,-0.00000208,0.00000
 023,0.00000039,-0.00000110,-0.00000103,0.00000092,0.00000192,0.0000007
 0,-0.00000424,0.00000809,0.00000596,-0.00000331,-0.00000186,-0.0000018
 9,-0.00000674,0.00000068,-0.00000005,0.00000604,-0.00001519,0.00000056
 ,0.00000217,-0.00000360,-0.00000209,0.00000461,0.00002121,-0.00000150,
 0.00003592,0.00005774,-0.00005928,-0.00003638,-0.00000126,-0.00002240,
 -0.00003120,0.00006651,-0.00004533,0.00003672,-0.00091512,0.00022431,0
 .00001544,-0.00008614,0.00003545,0.00018304,0.00023480,0.00014698,-0.0
 0003613,-0.00018759,-0.00073858,0.00003127,0.00066742,0.00021723,0.000
 18036,0.00053224,0.00079814,-0.00128374,0.00056793,-0.04712897,0.00897
 876,-0.02424382,0.00003916,-0.00062060,-0.00563828,0.05030853,0.000002
 07,-0.00000335,0.00000578,-0.00000057,0.00000126,-0.00000082,-0.000000
 57,0.00000008,-0.00000150,-0.00000461,-0.00000162,0.00000280,-0.000007
 73,0.00000482,-0.00000830,0.00000004,-0.00000108,0.00000063,0.00000005
 ,-0.00000001,0.00000125,0.00000741,-0.00001001,0.00001726,-0.00000120,
 -0.00000054,-0.00000121,-0.00000120,0.00000132,-0.00000013,-0.00002740
 ,0.00001095,-0.00001887,0.00000045,0.00000057,0.00000300,0.00000045,-0
 .00000289,0.00000099,0.00001355,-0.00003167,0.00005460,-0.00000198,-0.
 00000138,-0.00000301,-0.00000198,0.00000330,-0.00000029,-0.00012074,0.
 00003491,-0.00006013,0.00000269,0.00000337,0.00000759,0.00000269,-0.00
 000827,0.00000084,0.00003100,-0.00015256,0.00026301,-0.00000483,-0.000
 00869,-0.00001252,-0.00000482,0.00001519,0.00000133,-0.00078240,0.0001
 3018,-0.00022404,0.00001783,0.00002477,0.00000967,0.00001782,-0.000020
 70,-0.00001671,0.00015196,-0.00111323,0.00191947,0.00004687,-0.0000572
 4,-0.00008440,0.00004687,0.00010164,0.00000777,-0.00638046,0.00082124,
 -0.00141276,0.00005321,0.00022374,0.00023867,0.00005301,-0.00031807,-0
 .00007577,-0.01557850,-0.01787287,0.03082086,0.00154978,0.00017172,0.0
 0051554,0.00154987,-0.00053318,0.00010614,-0.09132041,-0.01871059,0.03
 226482,0.00340119,0.00525954,-0.00846771,0.00339548,0.00473068,-0.0087
 5879,0.55569021,-0.00000110,0.00000182,-0.00000197,0.00000055,-0.00000
 106,0.00000032,0.00000015,-0.00000007,0.00000044,0.00000188,0.00000075
 ,-0.00000120,0.00000250,-0.00000164,0.00000335,0.00000022,-0.00000030,
 -0.00000010,-0.00000017,0.00000010,-0.00000073,-0.00000349,0.00000474,
 -0.00000493,0.00000036,0.00000011,0.00000013,0.00000116,-0.00000152,-0
 .00000013,0.00000797,-0.00000371,0.00000624,-0.00000040,0.00000011,-0.
 00000130,0.00000011,-0.00000024,0.00000002,-0.00000758,0.00001139,-0.0
 0001216,0.00000096,0.00000029,0.00000051,0.00000239,-0.00000318,-0.000
 00052,0.00002622,-0.00001381,0.00001212,-0.00000083,0.00000057,-0.0000
 0273,-0.00000014,-0.00000002,0.00000085,-0.00001741,0.00004238,-0.0000
 4238,0.00000169,0.00000013,0.00000132,0.00000685,-0.00001040,-0.000002
 41,0.00009583,-0.00005273,0.00003984,-0.00000529,0.00000420,-0.0000069
 9,0.00000752,0.00001079,0.00000170,0.00015407,0.00065374,-0.00000519,0
 .00005965,-0.00001064,-0.00000490,-0.00009101,-0.00004008,-0.00001219,
 0.00062291,-0.00045522,-0.00018512,0.00000590,0.00005199,0.00028792,-0
 .00009983,0.00045555,-0.00003636,-0.00283492,-0.00086133,0.00048049,0.
 00020105,-0.00006210,0.00044349,0.00120770,0.00062866,-0.00089081,-0.0
 1955641,-0.10406012,0.04693245,0.00565516,0.00674147,-0.01209658,-0.01
 250229,-0.01467280,0.02674874,-0.01431908,0.53642939,0.00000189,-0.000
 00197,0.00000406,-0.00000048,0.00000101,-0.00000050,-0.00000072,-0.000
 00025,-0.00000149,-0.00000325,-0.00000119,0.00000212,-0.00000431,0.000
 00335,-0.00000546,0.00000006,-0.00000050,0.00000057,-0.00000016,-0.000
 00032,0.00000017,0.00000601,-0.00000492,0.00001037,-0.00000154,-0.0000
 0106,-0.00000151,-0.00000108,0.00000106,0.00000011,-0.00001373,0.00000
 623,-0.00001083,0.00000010,-0.00000019,0.00000049,0.00000039,-0.000001
 10,0.00000084,0.00001306,-0.00001215,0.00002527,-0.00000330,-0.0000025
 0,-0.00000318,-0.00000247,0.00000250,0.00000029,-0.00004514,0.00001211
 ,-0.00002764,0.00000063,0.00000051,0.00000105,0.00000104,-0.00000239,0
 .00000164,0.00003000,-0.00004231,0.00009072,-0.00000886,-0.00000842,-0
 .00000976,-0.00000586,0.00000733,0.00000076,-0.00016482,0.00003982,-0.
 00009815,-0.00000564,0.00000547,0.00001381,0.00000179,-0.00001075,0.00
 000723,-0.00026536,-0.00000452,0.00065871,0.00007068,-0.00002904,-0.00
 003029,-0.00001669,0.00001192,-0.00000086,-0.00107083,-0.00018522,-0.0
 0024252,0.00011184,0.00019430,0.00031151,0.00005039,0.00005726,-0.0000
 9185,0.00489533,0.00048842,-0.00142811,-0.00150705,-0.00049516,0.00088
 461,-0.00092310,0.00004877,0.00019376,0.03372302,0.04693200,-0.1577721
 0,0.01116696,0.01449080,-0.02305293,0.00063426,0.00015248,-0.00163294,
 0.02468598,0.03251848,0.49921206,-0.00000051,0.00000054,-0.00000121,0.
 00000003,-0.00000016,0.00000025,0.00000020,-0.00000005,0.00000053,0.00
 000111,0.00000047,-0.00000092,0.00000113,-0.00000139,0.00000178,-0.000
 00008,0.00000052,-0.00000023,0.00000009,0.00000006,-0.00000017,-0.0000
 0152,0.00000123,-0.00000271,0.00000035,0.00000008,0.00000033,0.0000000
 7,0.00000010,0.00000004,0.00000312,-0.00000234,0.00000293,0.00000006,0
 .00000003,-0.00000043,-0.00000011,0.00000097,-0.00000037,-0.00000255,0
 .00000260,-0.00000509,0.00000049,-0.00000003,0.00000051,0.00000008,0.0
 0000015,0.00000018,0.00000808,-0.00000436,0.00000593,0.00000013,-0.000
 00005,-0.00000130,-0.00000015,0.00000206,-0.00000075,-0.00000637,0.000
 00802,-0.00001308,0.00000029,-0.00000073,0.00000109,0.00000003,0.00000
 021,0.00000057,0.00002749,-0.00001470,0.00000555,0.00000370,0.00000165
 ,-0.00000857,0.00000018,0.00000570,-0.00000185,-0.00001013,0.00001323,
 -0.00008431,-0.00003048,-0.00001228,-0.00000908,-0.00000105,0.00000027
 ,0.00000250,0.00001903,-0.00006641,0.00016733,-0.00010890,-0.00005293,
 -0.00012668,0.00000163,0.00003022,-0.00002104,0.00127914,0.00100703,0.
 00075849,0.00002126,-0.00029385,-0.00023489,-0.00003779,0.00000772,0.0
 0000357,0.00285159,0.00597508,0.01013635,-0.00012866,-0.00103493,0.002
 30568,0.00021575,0.00017837,-0.00069176,-0.07107915,-0.03734754,-0.068
 42722,0.07324296,-0.00000021,-0.00000004,-0.00000023,0.00000005,-0.000
 00014,-0.00000013,0.00000017,0.00000027,0.00000025,0.00000002,-0.00000
 007,0.00000007,0.,0.,-0.00000023,0.00000003,-0.00000021,-0.00000001,0.
 00000014,0.00000017,0.00000045,-0.00000051,-0.00000013,-0.00000055,0.0
 0000032,0.00000048,0.00000047,0.00000010,-0.00000028,-0.00000018,0.000
 00037,0.00000007,-0.00000029,0.00000015,0.00000017,0.00000079,0.000000
 01,-0.00000037,0.00000007,-0.00000125,-0.00000006,-0.00000161,0.000000
 53,0.00000098,0.00000078,0.00000017,-0.00000053,-0.00000038,0.00000224
 ,0.00000041,0.00000043,0.00000022,-0.00000008,0.00000153,0.00000002,-0
 .00000073,0.00000034,-0.00000357,0.00000234,-0.00001022,0.00000071,0.0
 0000292,0.00000187,0.00000017,-0.00000131,-0.00000117,0.00001855,0.000
 00150,0.00000824,0.00000194,-0.00000186,0.00000225,-0.00000062,-0.0000
 0306,0.00000168,-0.00000899,-0.00001244,-0.00011531,-0.00002024,0.0000
 1161,0.00000354,-0.00000056,-0.00000264,-0.00000378,0.00019560,0.00002
 346,0.00023272,-0.00005753,-0.00008030,-0.00004994,0.00000925,-0.00002
 683,0.00001948,0.00061182,0.00037442,-0.00004972,0.00003420,0.00010218
 ,-0.00030723,-0.00010074,-0.00003841,-0.00010238,0.00526750,0.00721163
 ,0.01442416,-0.00149745,-0.00041476,0.00330900,0.00063147,0.00096974,-
 0.00033163,-0.03717532,-0.09976169,-0.09953313,0.04190725,0.10515985,-
 0.00000090,0.00000042,-0.00000158,0.00000010,-0.00000028,0.00000002,0.
 00000063,0.00000042,0.00000100,0.00000108,0.00000028,-0.00000072,0.000
 00124,-0.00000158,0.00000112,-0.00000013,0.00000023,-0.00000035,0.0000
 0029,0.00000050,0.00000089,-0.00000261,0.00000085,-0.00000374,0.000001
 34,0.00000098,0.00000143,0.00000021,-0.00000024,-0.00000021,0.00000378
 ,-0.00000267,0.00000178,0.00000015,0.00000074,0.00000181,-0.00000030,0
 .00000046,-0.00000055,-0.00000581,0.00000192,-0.00000766,0.00000294,0.
 00000200,0.00000274,0.00000046,-0.00000052,-0.00000038,0.00000851,-0.0
 0000594,0.00000373,-0.00000012,0.00000153,0.00000414,-0.00000074,0.000
 00096,-0.00000122,-0.00001329,0.00000519,-0.00002263,0.00000726,0.0000
 0494,0.00000584,0.00000109,-0.00000111,-0.00000084,0.00000505,-0.00001
 600,0.00002321,-0.00000550,0.00000314,0.00001263,-0.00000257,0.0000022
 0,-0.00000479,0.00000394,0.00005883,0.00001187,0.00007371,0.00002623,0
 .00001051,0.00000778,-0.00000638,-0.00000230,0.00019598,0.00021816,0.0
 0026234,-0.00010893,-0.00003500,0.00034923,-0.00002523,-0.00000457,-0.
 00003312,-0.00171105,-0.00082156,0.00084469,0.00114461,0.00039077,0.00
 045558,0.00007920,0.00002108,0.00003895,-0.00854201,-0.01263518,-0.023
 10074,0.00246793,0.00343875,-0.00370834,-0.00035618,0.00029866,0.00100
 226,-0.06724339,-0.09810311,-0.22603200,0.07322883,0.10599553,0.248920
 26,0.00000215,-0.00000282,0.00000486,-0.00000047,0.00000121,-0.0000011
 4,-0.00000047,0.00000039,-0.00000161,-0.00000479,-0.00000215,0.0000037
 1,-0.00000528,0.00000484,-0.00000834,0.00000001,-0.00000140,0.00000066
 ,0.00000002,0.00000012,0.00000154,0.00000688,-0.00000668,0.00001152,-0
 .00000098,-0.00000018,-0.00000058,-0.00000098,0.00000060,-0.00000013,-
 0.00001509,0.00000830,-0.00001430,0.00000019,0.00000049,0.00000282,0.0
 0000019,-0.00000269,0.00000097,0.00001344,-0.00001499,0.00002584,-0.00
 000172,-0.00000034,-0.00000130,-0.00000172,0.00000130,-0.00000035,-0.0
 0004025,0.00001932,-0.00003329,0.00000073,0.00000112,0.00000600,0.0000
 0073,-0.00000577,0.00000201,0.00003347,-0.00004456,0.00007680,-0.00000
 398,-0.00000125,-0.00000416,-0.00000398,0.00000424,-0.00000098,-0.0001
 6288,0.00006303,-0.00010858,0.00000333,0.00000490,0.00001227,0.0000033
 3,-0.00001309,0.00000184,0.00012181,-0.00021140,0.00036439,-0.00000576
 ,-0.00000427,-0.00001876,-0.00000575,0.00001841,-0.00000561,-0.0006501
 4,0.00039663,-0.00068313,-0.00000928,0.00001098,0.00010822,-0.00000929
 ,-0.00009938,0.00004416,0.00093006,-0.00173879,0.00299733,0.00032359,0
 .00011284,-0.00007762,0.00032332,0.00001135,-0.00013654,-0.00964092,0.
 00104413,-0.00179595,0.00051228,0.00032240,0.00047237,0.00051180,-0.00
 057025,-0.00004550,-0.30970691,0.00087902,-0.00137568,-0.00884949,0.00
 050678,0.00008715,0.33516879,0.00000068,-0.00000095,0.00000174,-0.0000
 0013,0.00000031,-0.00000024,-0.00000024,0.00000001,-0.00000058,-0.0000
 0148,-0.00000052,0.00000099,-0.00000217,0.00000178,-0.00000249,0.00000
 007,-0.00000049,0.00000020,-0.00000004,-0.00000005,0.00000025,0.000002
 45,-0.00000264,0.00000468,-0.00000051,-0.00000025,-0.00000048,-0.00000
 032,0.00000028,0.00000005,-0.00000704,0.00000358,-0.00000495,0.0000000
 7,0.00000004,0.00000056,0.00000017,-0.00000097,0.00000026,0.00000521,-
 0.00000774,0.00001301,-0.00000095,-0.00000055,-0.00000106,-0.00000076,
 0.00000096,0.00000014,-0.00002536,0.00000952,-0.00001386,0.00000041,0.
 00000040,0.00000149,0.00000051,-0.00000219,0.00000021,0.00001233,-0.00
 003613,0.00005190,-0.00000213,-0.00000171,-0.00000310,-0.00000123,0.00
 000374,0.00000065,-0.00013087,0.00003521,-0.00005524,0.00000191,0.0000
 0374,0.00000341,0.00000163,-0.00001010,-0.00000074,0.00001117,-0.00019
 782,0.00033524,0.00000585,-0.00000382,-0.00001660,0.00000366,0.0000183
 5,0.00000702,-0.00101395,0.00063006,-0.00004773,-0.00001245,0.00000005
 ,0.00006912,0.00005602,-0.00001512,-0.00010036,-0.00010569,-0.00143872
 ,0.00291058,0.00041378,0.00004550,0.00008609,-0.00035106,0.00036815,0.
 00010903,-0.01636598,-0.00104252,-0.00130496,0.00056731,0.00045900,-0.
 00025404,-0.00011724,0.00030048,-0.00067397,0.00207014,-0.04487260,0.0
 0034610,-0.01482644,-0.00057385,0.00048694,-0.00036940,0.04562732,-0.0
 0000118,0.00000174,-0.00000294,0.00000035,-0.00000075,0.00000048,0.000
 00028,-0.00000007,0.00000079,0.00000255,0.00000099,-0.00000166,0.00000
 375,-0.00000249,0.00000463,0.00000001,0.00000050,-0.00000031,-0.000000
 05,-0.00000005,-0.00000075,-0.00000422,0.00000468,-0.00000800,0.000000
 67,0.00000035,0.00000052,0.00000078,-0.00000078,0.,0.00001214,-0.00000
 495,0.00000925,-0.00000024,-0.00000031,-0.00000144,-0.00000018,0.00000
 114,-0.00000043,-0.00000900,0.00001302,-0.00002263,0.00000143,0.000001
 00,0.00000149,0.00000153,-0.00000193,-0.00000002,0.00004374,-0.0000138
 8,0.00002539,-0.00000082,-0.00000127,-0.00000316,-0.00000076,0.0000029
 7,-0.00000058,-0.00002127,0.00005193,-0.00009554,0.00000264,0.00000376
 ,0.00000514,0.00000315,-0.00000622,-0.00000031,0.00022570,-0.00005534,
 0.00009842,-0.00000298,-0.00000866,-0.00001164,-0.00000313,0.00001134,
 0.00000221,-0.00001931,0.00033536,-0.00058151,-0.00000754,0.00001970,0
 .00002384,-0.00000884,-0.00002929,0.00000167,0.00174873,-0.00004848,0.
 00068471,-0.00005744,-0.00010901,0.00000271,-0.00001767,0.00007784,0.0
 0001789,0.00018185,0.00291144,-0.00476992,0.00016782,0.00029333,0.0002
 5648,-0.00027600,-0.00009825,-0.00006590,0.02821920,-0.00131414,0.0004
 4624,-0.00018975,-0.00076487,0.00083101,-0.00058660,-0.00016278,0.0009
 9000,-0.00342918,0.00034673,-0.04526717,-0.02628491,0.00123091,0.00015
 263,0.00048342,-0.00243575,0.04841337,-0.00000051,0.00000078,-0.000001
 07,0.00000019,-0.00000044,0.00000031,0.00000003,-0.00000014,0.00000026
 ,0.00000111,0.00000056,-0.00000086,0.00000113,-0.00000086,0.00000209,0
 .00000009,0.00000012,-0.00000014,-0.00000008,-0.00000006,-0.00000056,-
 0.00000152,0.00000174,-0.00000241,0.00000007,-0.00000008,-0.00000007,0
 .00000035,-0.00000033,0.00000010,0.00000312,-0.00000139,0.00000348,-0.
 00000011,-0.00000016,-0.00000103,0.00000006,0.00000036,-0.00000024,-0.
 00000255,0.00000313,-0.00000478,0.00000008,-0.00000023,-0.00000004,0.0
 0000049,-0.00000043,0.00000029,0.00000807,-0.00000299,0.00000673,-0.00
 000015,-0.00000037,-0.00000216,0.00000013,0.00000116,-0.00000061,-0.00
 000636,0.00000737,-0.00001345,0.00000003,-0.00000060,0.00000010,0.0000
 0029,-0.00000058,0.00000118,0.00002748,0.00000248,0.00001550,0.0000001
 8,-0.00000123,-0.00000586,0.00000370,0.00000662,-0.00000570,-0.0000101
 1,0.00006658,-0.00005331,-0.00000106,-0.00000230,0.00000101,-0.0000304
 8,0.00001400,0.00000616,0.00001887,-0.00011210,0.00014069,0.00000162,0
 .00000325,-0.00003669,-0.00010879,0.00013633,-0.00001700,0.00127865,-0
 .00115882,-0.00049803,-0.00003777,-0.00000695,-0.00000491,0.00002113,0
 .00034984,0.00013859,0.00284602,-0.01176627,-0.00015492,0.00021566,0.0
 0051217,-0.00049795,-0.00012877,-0.00148669,0.00204352,-0.07100906,0.0
 7784565,-0.00154612,0.00257896,-0.01032280,0.00069550,-0.00883598,0.03
 018209,-0.00017865,0.07316576,0.00000089,-0.00000112,0.00000104,-0.000
 00063,0.00000111,-0.00000006,-0.00000012,-0.00000020,-0.00000025,-0.00
 000095,-0.00000041,0.00000048,-0.00000108,0.00000006,-0.00000162,-0.00
 000032,0.00000112,-0.00000004,0.00000010,-0.00000022,0.00000024,0.0000
 0252,-0.00000273,0.00000233,-0.00000023,-0.00000041,-0.00000017,-0.000
 00132,0.00000182,0.00000021,-0.00000347,0.00000008,-0.00000268,0.00000
 026,-0.00000027,0.00000041,-0.00000021,0.00000206,-0.00000034,0.000005
 66,-0.00000566,0.00000512,-0.00000049,-0.00000081,-0.00000036,-0.00000
 281,0.00000351,0.00000056,-0.00000850,0.00000055,-0.00000601,0.0000006
 3,-0.00000054,0.00000085,0.,0.00000442,-0.00000105,0.00001331,-0.00001
 865,0.00001720,-0.00000103,-0.00000194,-0.00000075,-0.00000665,0.00000
 806,0.00000200,-0.00001361,0.00001452,-0.00002345,0.00000254,-0.000002
 69,0.00000200,0.00000382,0.00001137,-0.00000443,0.00000105,-0.00001850
 ,0.00006230,-0.00000648,-0.00000675,-0.00000402,-0.00005390,0.00002363
 ,0.00001938,-0.00026706,0.00039794,0.00000407,0.00001730,-0.00002515,-
 0.00000552,0.00012321,0.00020662,-0.00019921,0.00118085,0.00035325,-0.
 00080954,-0.00001871,-0.00001514,0.00000778,-0.00101031,0.00040477,0.0
 0021807,0.00479135,-0.01485414,-0.00001334,-0.00000392,0.00097980,0.00
 029300,-0.00139785,0.00001305,0.00319425,0.07673291,-0.28015292,0.0050
 1717,0.00451463,-0.01294240,0.00067243,-0.00032297,0.00070024,-0.00024
 946,-0.08426840,0.30492269,-0.00000026,0.00000039,-0.00000051,0.000000
 16,-0.00000023,0.00000016,0.,-0.00000010,0.00000008,0.00000052,0.00000
 026,-0.00000038,0.00000061,-0.00000027,0.00000105,0.00000002,-0.000000
 09,-0.00000007,-0.00000009,0.,-0.00000034,-0.00000085,0.00000093,-0.00
 000114,0.00000002,-0.00000010,-0.00000008,0.00000039,-0.00000030,0.000
 00009,0.00000155,-0.00000029,0.00000177,-0.00000016,0.00000001,-0.0000
 0064,-0.00000006,-0.00000029,-0.00000009,-0.00000180,0.00000159,-0.000
 00206,0.00000008,-0.00000022,-0.00000010,0.00000100,-0.00000066,0.0000
 0021,0.00000228,0.00000036,0.00000360,-0.00000039,0.00000023,-0.000001
 41,-0.00000025,-0.00000104,-0.00000035,-0.00000350,0.00000178,-0.00000
 164,0.00000039,-0.00000081,-0.00000021,0.00000299,-0.00000107,0.000000
 70,-0.00001360,0.00000080,0.00001020,-0.00000074,0.00000147,-0.0000051
 6,-0.00000442,-0.00000532,-0.00000061,0.00000972,-0.00011189,0.0000179
 1,0.00000435,-0.00000142,0.00000182,0.00005417,-0.00000335,-0.00000151
 ,-0.00007251,0.00001868,-0.00011199,-0.00002056,0.00001853,-0.00003479
 ,-0.00000420,-0.00021415,0.00006219,-0.00138074,-0.00003667,0.00086634
 ,0.00012673,-0.00011574,0.00001566,0.00053843,-0.00048048,0.00015311,-
 0.00880215,0.02705435,-0.00102940,-0.00072493,-0.00033732,0.00099229,0
 .00252551,0.00306430,-0.00413603,-0.00110849,0.00358665,-0.04571086,0.
 00929409,-0.02472643,0.00081253,-0.00039436,0.00048651,-0.00113497,-0.
 00002897,-0.00819858,0.04923462\\-0.00003734,-0.00000530,0.00000845,0.
 00002293,-0.00004419,-0.00000241,0.00002216,0.00002375,0.00003686,0.00
 001991,0.00002215,-0.00003852,0.00000851,-0.00002698,0.00004864,-0.000
 02016,0.00003978,-0.00000264,-0.00001957,-0.00001742,-0.00003493,-0.00
 003064,0.00002740,-0.00004780,0.00001358,0.00002067,0.00003397,0.00001
 349,-0.00004007,-0.00000059,0.00001533,-0.00002504,0.00004265,-0.00001
 353,-0.00001943,-0.00003421,-0.00001332,0.00003922,-0.00000004,-0.0000
 3351,0.00001790,-0.00003102,0.00001421,0.00002030,0.00003588,0.0000141
 2,-0.00004116,0.00000016,0.00002430,-0.00002187,0.00003779,-0.00001446
 ,-0.00002095,-0.00003573,-0.00001446,0.00004141,0.00000046,-0.00002852
 ,0.00002025,-0.00003488,0.00001451,0.00002122,0.00003601,0.00001449,-0
 .00004181,-0.00000054,0.00003306,-0.00001880,0.00003240,-0.00001441,-0
 .00002093,-0.00003576,-0.00001439,0.00004144,0.00000042,-0.00002260,0.
 00002185,-0.00003765,0.00001492,0.00002056,0.00003539,0.00001490,-0.00
 004093,-0.00000028,0.00004151,-0.00001553,0.00002675,-0.00001418,-0.00
 001970,-0.00003368,-0.00001416,0.00003902,0.00000038,-0.00004173,0.000
 02372,-0.00004087,0.00001370,0.00002059,0.00003413,0.00001368,-0.00003
 986,-0.00000093,0.00004960,-0.00001334,0.00002297,-0.00001400,-0.00001
 535,-0.00003898,-0.00001398,0.00004147,-0.00000602,0.00002185,0.000015
 99,-0.00002758,0.00001138,0.00001992,0.00004384,-0.00004853,-0.0000019
 7,0.00000343,0.00001136,-0.00004795,0.00000447\\\@


 IF OTHER PEOPLE ARE GOING TO TALK, CONVERSATION IS SIMPLY IMPOSSIBLE.

                                               -- WHISTLER'S PRINCIPLE
 Job cpu time:       0 days  2 hours 19 minutes 36.0 seconds.
 Elapsed time:       0 days  0 hours 17 minutes 28.6 seconds.
 File lengths (MBytes):  RWF=    429 Int=      0 D2E=      0 Chk=     11 Scr=      1
 Normal termination of Gaussian 16 at Thu Jan  9 22:20:23 2020.
