 Entering Gaussian System, Link 0=g16
 Input=C6H8_opt.gjf
 Output=C6H8_opt.log
 Initial command:
 /home/qingchun/software/g16A_modified_by_qingchun/g16/l1.exe "/scratch/qingchun/gaussian/Gau-22481.inp" -scrdir="/scratch/qingchun/gaussian/"
 Entering Link 1 = /home/qingchun/software/g16A_modified_by_qingchun/g16/l1.exe PID=     22482.
  
 Copyright (c) 1988,1990,1992,1993,1995,1998,2003,2009,2016,
            Gaussian, Inc.  All Rights Reserved.
  
 This is part of the Gaussian(R) 16 program.  It is based on
 the Gaussian(R) 09 system (copyright 2009, Gaussian, Inc.),
 the Gaussian(R) 03 system (copyright 2003, Gaussian, Inc.),
 the Gaussian(R) 98 system (copyright 1998, Gaussian, Inc.),
 the Gaussian(R) 94 system (copyright 1995, Gaussian, Inc.),
 the Gaussian 92(TM) system (copyright 1992, Gaussian, Inc.),
 the Gaussian 90(TM) system (copyright 1990, Gaussian, Inc.),
 the Gaussian 88(TM) system (copyright 1988, Gaussian, Inc.),
 the Gaussian 86(TM) system (copyright 1986, Carnegie Mellon
 University), and the Gaussian 82(TM) system (copyright 1983,
 Carnegie Mellon University). Gaussian is a federally registered
 trademark of Gaussian, Inc.
  
 This software contains proprietary and confidential information,
 including trade secrets, belonging to Gaussian, Inc.
  
 This software is provided under written license and may be
 used, copied, transmitted, or stored only in accord with that
 written license.
  
 The following legend is applicable only to US Government
 contracts under FAR:
  
                    RESTRICTED RIGHTS LEGEND
  
 Use, reproduction and disclosure by the US Government is
 subject to restrictions as set forth in subparagraphs (a)
 and (c) of the Commercial Computer Software - Restricted
 Rights clause in FAR 52.227-19.
  
 Gaussian, Inc.
 340 Quinnipiac St., Bldg. 40, Wallingford CT 06492
  
  
 ---------------------------------------------------------------
 Warning -- This program may not be used in any manner that
 competes with the business of Gaussian, Inc. or will provide
 assistance to any competitor of Gaussian, Inc.  The licensee
 of this program is prohibited from giving any competitor of
 Gaussian, Inc. access to this program.  By using this program,
 the user acknowledges that Gaussian, Inc. is engaged in the
 business of creating and licensing software in the field of
 computational chemistry and represents and warrants to the
 licensee that it is not a competitor of Gaussian, Inc. and that
 it will not use this program in any manner prohibited above.
 ---------------------------------------------------------------
  

 Cite this work as:
 Gaussian 16, Revision A.03,
 M. J. Frisch, G. W. Trucks, H. B. Schlegel, G. E. Scuseria, 
 M. A. Robb, J. R. Cheeseman, G. Scalmani, V. Barone, 
 G. A. Petersson, H. Nakatsuji, X. Li, M. Caricato, A. V. Marenich, 
 J. Bloino, B. G. Janesko, R. Gomperts, B. Mennucci, H. P. Hratchian, 
 J. V. Ortiz, A. F. Izmaylov, J. L. Sonnenberg, D. Williams-Young, 
 F. Ding, F. Lipparini, F. Egidi, J. Goings, B. Peng, A. Petrone, 
 T. Henderson, D. Ranasinghe, V. G. Zakrzewski, J. Gao, N. Rega, 
 G. Zheng, W. Liang, M. Hada, M. Ehara, K. Toyota, R. Fukuda, 
 J. Hasegawa, M. Ishida, T. Nakajima, Y. Honda, O. Kitao, H. Nakai, 
 T. Vreven, K. Throssell, J. A. Montgomery, Jr., J. E. Peralta, 
 F. Ogliaro, M. J. Bearpark, J. J. Heyd, E. N. Brothers, K. N. Kudin, 
 V. N. Staroverov, T. A. Keith, R. Kobayashi, J. Normand, 
 K. Raghavachari, A. P. Rendell, J. C. Burant, S. S. Iyengar, 
 J. Tomasi, M. Cossi, J. M. Millam, M. Klene, C. Adamo, R. Cammi, 
 J. W. Ochterski, R. L. Martin, K. Morokuma, O. Farkas, 
 J. B. Foresman, and D. J. Fox, Gaussian, Inc., Wallingford CT, 2016.
 
 ******************************************
 Gaussian 16:  ES64L-G16RevA.03 25-Dec-2016
                20-Jun-2020 
 ******************************************
 %nprocshared=4
 Will use up to    4 processors via shared memory.
 %mem=30GB
 %chk=C6H8_opt.chk
 ------------------------
 # opt freq b3lyp/cc-pVDZ
 ------------------------
 1/18=20,19=15,26=3,38=1/1,3;
 2/9=110,12=2,17=6,18=5,40=1/2;
 3/5=16,11=2,25=1,30=1,71=1,74=-5/1,2,3;
 4//1;
 5/5=2,38=5/2;
 6/7=2,8=2,9=2,10=2,28=1/1;
 7//1,2,3,16;
 1/18=20,19=15,26=3/3(2);
 2/9=110/2;
 99//99;
 2/9=110/2;
 3/5=16,11=2,25=1,30=1,71=1,74=-5/1,2,3;
 4/5=5,16=3,69=1/1;
 5/5=2,38=5/2;
 7//1,2,3,16;
 1/18=20,19=15,26=3/3(-5);
 2/9=110/2;
 6/7=2,8=2,9=2,10=2,19=2,28=1/1;
 99/9=1/99;
 -------
 cc-pVDZ
 -------
 Symbolic Z-matrix:
 Charge =  0 Multiplicity = 1
 C                    -1.7737   -0.56575   0. 
 H                    -1.24054  -1.49345   0. 
 H                    -2.8437   -0.56575   0. 
 C                    -1.09843   0.60923   0. 
 H                    -1.63159   1.53693   0. 
 C                     0.44157   0.60923   0. 
 H                     0.97474  -0.31848   0. 
 C                     1.12382   1.78017   0. 
 H                     0.59617   2.71103   0. 
 C                     2.66379   1.77102   0. 
 H                     3.19143   0.84017   0. 
 C                     3.35298   2.93789   0. 
 H                     2.83088   3.87187   0. 
 H                     4.4229    2.92518   0. 
 

 GradGradGradGradGradGradGradGradGradGradGradGradGradGradGradGradGradGrad
 Berny optimization.
 Initialization pass.
                           ----------------------------
                           !    Initial Parameters    !
                           ! (Angstroms and Degrees)  !
 --------------------------                            --------------------------
 ! Name  Definition              Value          Derivative Info.                !
 --------------------------------------------------------------------------------
 ! R1    R(1,2)                  1.07           estimate D2E/DX2                !
 ! R2    R(1,3)                  1.07           estimate D2E/DX2                !
 ! R3    R(1,4)                  1.3552         estimate D2E/DX2                !
 ! R4    R(4,5)                  1.07           estimate D2E/DX2                !
 ! R5    R(4,6)                  1.54           estimate D2E/DX2                !
 ! R6    R(6,7)                  1.07           estimate D2E/DX2                !
 ! R7    R(6,8)                  1.3552         estimate D2E/DX2                !
 ! R8    R(8,9)                  1.07           estimate D2E/DX2                !
 ! R9    R(8,10)                 1.54           estimate D2E/DX2                !
 ! R10   R(10,11)                1.07           estimate D2E/DX2                !
 ! R11   R(10,12)                1.3552         estimate D2E/DX2                !
 ! R12   R(12,13)                1.07           estimate D2E/DX2                !
 ! R13   R(12,14)                1.07           estimate D2E/DX2                !
 ! A1    A(2,1,3)              119.8865         estimate D2E/DX2                !
 ! A2    A(2,1,4)              120.2269         estimate D2E/DX2                !
 ! A3    A(3,1,4)              119.8865         estimate D2E/DX2                !
 ! A4    A(1,4,5)              120.2269         estimate D2E/DX2                !
 ! A5    A(1,4,6)              119.8865         estimate D2E/DX2                !
 ! A6    A(5,4,6)              119.8865         estimate D2E/DX2                !
 ! A7    A(4,6,7)              119.8865         estimate D2E/DX2                !
 ! A8    A(4,6,8)              120.2269         estimate D2E/DX2                !
 ! A9    A(7,6,8)              119.8865         estimate D2E/DX2                !
 ! A10   A(6,8,9)              120.2269         estimate D2E/DX2                !
 ! A11   A(6,8,10)             119.8865         estimate D2E/DX2                !
 ! A12   A(9,8,10)             119.8865         estimate D2E/DX2                !
 ! A13   A(8,10,11)            119.8865         estimate D2E/DX2                !
 ! A14   A(8,10,12)            120.2269         estimate D2E/DX2                !
 ! A15   A(11,10,12)           119.8865         estimate D2E/DX2                !
 ! A16   A(10,12,13)           120.2269         estimate D2E/DX2                !
 ! A17   A(10,12,14)           119.8865         estimate D2E/DX2                !
 ! A18   A(13,12,14)           119.8865         estimate D2E/DX2                !
 ! D1    D(2,1,4,5)            180.0            estimate D2E/DX2                !
 ! D2    D(2,1,4,6)              0.0            estimate D2E/DX2                !
 ! D3    D(3,1,4,5)              0.0            estimate D2E/DX2                !
 ! D4    D(3,1,4,6)            180.0            estimate D2E/DX2                !
 ! D5    D(1,4,6,7)              0.0            estimate D2E/DX2                !
 ! D6    D(1,4,6,8)            180.0            estimate D2E/DX2                !
 ! D7    D(5,4,6,7)            180.0            estimate D2E/DX2                !
 ! D8    D(5,4,6,8)              0.0            estimate D2E/DX2                !
 ! D9    D(4,6,8,9)              0.0            estimate D2E/DX2                !
 ! D10   D(4,6,8,10)           180.0            estimate D2E/DX2                !
 ! D11   D(7,6,8,9)            180.0            estimate D2E/DX2                !
 ! D12   D(7,6,8,10)             0.0            estimate D2E/DX2                !
 ! D13   D(6,8,10,11)            0.0            estimate D2E/DX2                !
 ! D14   D(6,8,10,12)          180.0            estimate D2E/DX2                !
 ! D15   D(9,8,10,11)          180.0            estimate D2E/DX2                !
 ! D16   D(9,8,10,12)            0.0            estimate D2E/DX2                !
 ! D17   D(8,10,12,13)           0.0            estimate D2E/DX2                !
 ! D18   D(8,10,12,14)         180.0            estimate D2E/DX2                !
 ! D19   D(11,10,12,13)        180.0            estimate D2E/DX2                !
 ! D20   D(11,10,12,14)          0.0            estimate D2E/DX2                !
 --------------------------------------------------------------------------------
 Trust Radius=3.00D-01 FncErr=1.00D-07 GrdErr=1.00D-06 EigMax=2.50D+02 EigMin=1.00D-04
 Number of steps in this run=     61 maximum allowed number of steps=    100.
 GradGradGradGradGradGradGradGradGradGradGradGradGradGradGradGradGradGrad

                          Input orientation:                          
 ---------------------------------------------------------------------
 Center     Atomic      Atomic             Coordinates (Angstroms)
 Number     Number       Type             X           Y           Z
 ---------------------------------------------------------------------
      1          6           0       -1.773700   -0.565749    0.000000
      2          1           0       -1.240537   -1.493454    0.000000
      3          1           0       -2.843700   -0.565749    0.000000
      4          6           0       -1.098426    0.609228    0.000000
      5          1           0       -1.631590    1.536933    0.000000
      6          6           0        0.441574    0.609228    0.000000
      7          1           0        0.974738   -0.318477    0.000000
      8          6           0        1.123817    1.780173    0.000000
      9          1           0        0.596175    2.711029    0.000000
     10          6           0        2.663790    1.771023    0.000000
     11          1           0        3.191433    0.840167    0.000000
     12          6           0        3.352979    2.937893    0.000000
     13          1           0        2.830876    3.871868    0.000000
     14          1           0        4.422903    2.925179    0.000000
 ---------------------------------------------------------------------
                    Distance matrix (angstroms):
                    1          2          3          4          5
     1  C    0.000000
     2  H    1.070000   0.000000
     3  H    1.070000   1.852234   0.000000
     4  C    1.355200   2.107479   2.103938   0.000000
     5  H    2.107479   3.055514   2.427032   1.070000   0.000000
     6  C    2.507591   2.692725   3.489068   1.540000   2.271265
     7  H    2.759539   2.507591   3.826436   2.271265   3.199295
     8  C    3.728131   4.038168   4.609181   2.511867   2.766123
     9  H    4.043956   4.588157   4.750791   2.699859   2.518221
    10  C    5.015160   5.089261   5.982721   3.937517   4.301754
    11  H    5.160343   5.008806   6.196727   4.296070   4.873092
    12  C    6.209537   6.382572   7.118591   5.023712   5.177703
    13  H    6.394886   6.735212   7.203698   5.107273   5.036420
    14  H    7.112276   7.183235   8.061644   5.987379   6.211611
                    6          7          8          9         10
     6  C    0.000000
     7  H    1.070000   0.000000
     8  C    1.355200   2.103938   0.000000
     9  H    2.107479   3.053066   1.070000   0.000000
    10  C    2.507591   2.686802   1.540000   2.271265   0.000000
    11  H    2.759539   2.501238   2.271265   3.199295   1.070000
    12  C    3.728131   4.032366   2.511867   2.766123   1.355200
    13  H    4.043956   4.583038   2.699859   2.518221   2.107479
    14  H    4.605932   4.734041   3.492135   3.832716   2.103938
                   11         12         13         14
    11  H    0.000000
    12  C    2.103938   0.000000
    13  H    3.053066   1.070000   0.000000
    14  H    2.421527   1.070000   1.852234   0.000000
 Stoichiometry    C6H8
 Framework group  CS[SG(C6H8)]
 Deg. of freedom    25
 Full point group                 CS      NOp   2
 Largest Abelian subgroup         CS      NOp   2
 Largest concise Abelian subgroup C1      NOp   1
                         Standard orientation:                         
 ---------------------------------------------------------------------
 Center     Atomic      Atomic             Coordinates (Angstroms)
 Number     Number       Type             X           Y           Z
 ---------------------------------------------------------------------
      1          6           0       -1.307446    2.814682    0.000000
      2          1           0       -0.375989    3.341262    0.000000
      3          1           0       -2.228129    3.359882    0.000000
      4          6           0       -1.325095    1.459597    0.000000
      5          1           0       -2.256552    0.933016    0.000000
      6          6           0        0.000000    0.674916    0.000000
      7          1           0        0.931457    1.201497    0.000000
      8          6           0       -0.009597   -0.680250    0.000000
      9          1           0       -0.937910   -1.212355    0.000000
     10          6           0        1.320136   -1.457043    0.000000
     11          1           0        2.248449   -0.924938    0.000000
     12          6           0        1.318591   -2.812243    0.000000
     13          1           0        0.393456   -3.349854    0.000000
     14          1           0        2.245687   -3.346464    0.000000
 ---------------------------------------------------------------------
 Rotational constants (GHZ):          24.3012220           1.3063230           1.2396833
 Standard basis: CC-pVDZ (5D, 7F)
 There are    98 symmetry adapted cartesian basis functions of A'  symmetry.
 There are    32 symmetry adapted cartesian basis functions of A"  symmetry.
 There are    92 symmetry adapted basis functions of A'  symmetry.
 There are    32 symmetry adapted basis functions of A"  symmetry.
   124 basis functions,   254 primitive gaussians,   130 cartesian basis functions
    22 alpha electrons       22 beta electrons
       nuclear repulsion energy       191.1474021663 Hartrees.
 NAtoms=   14 NActive=   14 NUniq=   14 SFac= 1.00D+00 NAtFMM=   60 NAOKFM=F Big=F
 Integral buffers will be    131072 words long.
 Raffenetti 2 integral format.
 Two-electron integral symmetry is turned on.
 One-electron integrals computed using PRISM.
 NBasis=   124 RedAO= T EigKep=  1.53D-03  NBF=    92    32
 NBsUse=   124 1.00D-06 EigRej= -1.00D+00 NBFU=    92    32
 ExpMin= 1.22D-01 ExpMax= 6.67D+03 ExpMxC= 2.28D+02 IAcc=3 IRadAn=         5 AccDes= 0.00D+00
 Harris functional with IExCor=  402 and IRadAn=       5 diagonalized for initial guess.
 HarFok:  IExCor=  402 AccDes= 0.00D+00 IRadAn=         5 IDoV= 1 UseB2=F ITyADJ=14
 ICtDFT=  3500011 ScaDFX=  1.000000  1.000000  1.000000  1.000000
 FoFCou: FMM=F IPFlag=           0 FMFlag=      100000 FMFlg1=           0
         NFxFlg=           0 DoJE=T BraDBF=F KetDBF=T FulRan=T
         wScrn=  0.000000 ICntrl=       500 IOpCl=  0 I1Cent=   200000004 NGrid=           0
         NMat0=    1 NMatS0=      1 NMatT0=    0 NMatD0=    1 NMtDS0=    0 NMtDT0=    0
 Petite list used in FoFCou.
 Initial guess orbital symmetries:
       Occupied  (A') (A') (A') (A') (A') (A') (A') (A') (A') (A')
                 (A') (A') (A') (A') (A') (A') (A') (A') (A') (A")
                 (A") (A")
       Virtual   (A") (A") (A") (A') (A') (A') (A') (A') (A') (A')
                 (A') (A') (A') (A') (A') (A') (A') (A') (A') (A")
                 (A') (A") (A') (A') (A') (A") (A") (A') (A") (A")
                 (A') (A') (A') (A') (A') (A') (A') (A') (A') (A")
                 (A') (A") (A') (A') (A") (A") (A") (A") (A') (A')
                 (A") (A') (A') (A') (A') (A') (A") (A') (A') (A')
                 (A') (A') (A") (A') (A') (A") (A') (A") (A') (A")
                 (A') (A") (A') (A") (A') (A") (A") (A') (A') (A')
                 (A") (A') (A') (A") (A") (A') (A") (A') (A') (A')
                 (A') (A') (A') (A') (A') (A') (A') (A') (A') (A')
                 (A') (A')
 The electronic state of the initial guess is 1-A'.
 Keep R1 ints in memory in symmetry-blocked form, NReq=45939857.
 Requested convergence on RMS density matrix=1.00D-08 within 128 cycles.
 Requested convergence on MAX density matrix=1.00D-06.
 Requested convergence on             energy=1.00D-06.
 No special actions if energy rises.
 Integral accuracy reduced to 1.0D-05 until final iterations.
 Initial convergence to 1.0D-05 achieved.  Increase integral accuracy.
 SCF Done:  E(RB3LYP) =  -233.397600022     A.U. after   12 cycles
            NFock= 12  Conv=0.40D-08     -V/T= 2.0083

 **********************************************************************

            Population analysis using the SCF density.

 **********************************************************************

 Orbital symmetries:
       Occupied  (A') (A') (A') (A') (A') (A') (A') (A') (A') (A')
                 (A') (A') (A') (A') (A') (A') (A') (A') (A') (A")
                 (A") (A")
       Virtual   (A") (A") (A") (A') (A') (A') (A') (A') (A') (A')
                 (A') (A') (A') (A') (A') (A') (A') (A') (A") (A')
                 (A") (A') (A') (A') (A") (A') (A") (A') (A") (A")
                 (A') (A') (A') (A') (A') (A') (A') (A') (A') (A')
                 (A") (A") (A') (A') (A") (A") (A') (A') (A") (A")
                 (A") (A') (A') (A') (A') (A') (A") (A') (A') (A')
                 (A') (A') (A") (A') (A") (A') (A') (A") (A') (A")
                 (A") (A') (A") (A') (A') (A") (A") (A') (A') (A')
                 (A") (A') (A") (A') (A") (A") (A') (A') (A') (A')
                 (A') (A') (A') (A') (A') (A') (A') (A') (A') (A')
                 (A') (A')
 The electronic state is 1-A'.
 Alpha  occ. eigenvalues --  -10.20091 -10.20065 -10.19863 -10.19796 -10.18422
 Alpha  occ. eigenvalues --  -10.18393  -0.80973  -0.77211  -0.72226  -0.60762
 Alpha  occ. eigenvalues --   -0.56509  -0.55929  -0.47976  -0.46324  -0.42655
 Alpha  occ. eigenvalues --   -0.40654  -0.38662  -0.37336  -0.34036  -0.33221
 Alpha  occ. eigenvalues --   -0.28479  -0.21914
 Alpha virt. eigenvalues --   -0.04315   0.02869   0.06889   0.07081   0.08594
 Alpha virt. eigenvalues --    0.08956   0.10829   0.11743   0.14068   0.16469
 Alpha virt. eigenvalues --    0.16550   0.25563   0.26932   0.28582   0.33071
 Alpha virt. eigenvalues --    0.36419   0.39817   0.41408   0.46083   0.47902
 Alpha virt. eigenvalues --    0.48815   0.49479   0.50645   0.52610   0.52968
 Alpha virt. eigenvalues --    0.53054   0.53592   0.57631   0.62013   0.62155
 Alpha virt. eigenvalues --    0.65771   0.66039   0.67977   0.68769   0.71334
 Alpha virt. eigenvalues --    0.72990   0.74748   0.76734   0.86300   0.87150
 Alpha virt. eigenvalues --    0.88225   0.90843   0.93457   0.94813   0.97918
 Alpha virt. eigenvalues --    0.99408   1.01084   1.01662   1.03133   1.04235
 Alpha virt. eigenvalues --    1.06930   1.09041   1.11282   1.16707   1.33885
 Alpha virt. eigenvalues --    1.34231   1.39243   1.40921   1.46257   1.46487
 Alpha virt. eigenvalues --    1.47541   1.49067   1.50747   1.53212   1.57643
 Alpha virt. eigenvalues --    1.59324   1.60198   1.61276   1.64418   1.67179
 Alpha virt. eigenvalues --    1.68024   1.68955   1.72400   1.72891   1.77697
 Alpha virt. eigenvalues --    1.82130   1.82744   1.86143   1.92754   1.95626
 Alpha virt. eigenvalues --    1.96438   2.02810   2.04013   2.04061   2.13829
 Alpha virt. eigenvalues --    2.14809   2.16986   2.18648   2.21102   2.24025
 Alpha virt. eigenvalues --    2.25393   2.29114   2.34188   2.34455   2.49721
 Alpha virt. eigenvalues --    2.51249   2.71442   2.72065   2.75453   2.94331
 Alpha virt. eigenvalues --    3.12341   3.14493
          Condensed to atoms (all electrons):
               1          2          3          4          5          6
     1  C    4.613346   0.372448   0.361565   0.683521  -0.041882  -0.035097
     2  H    0.372448   0.693766  -0.057837  -0.004250   0.011135  -0.022241
     3  H    0.361565  -0.057837   0.692852   0.004936  -0.016069   0.007563
     4  C    0.683521  -0.004250   0.004936   4.665610   0.388842   0.379695
     5  H   -0.041882   0.011135  -0.016069   0.388842   0.730904  -0.050435
     6  C   -0.035097  -0.022241   0.007563   0.379695  -0.050435   4.797053
     7  H   -0.007169   0.003016   0.000094  -0.049562   0.006280   0.387250
     8  C    0.002366   0.001597  -0.000517  -0.022317  -0.006177   0.567525
     9  H    0.000927   0.000025  -0.000018  -0.014477   0.002772  -0.040219
    10  C   -0.000370  -0.000024   0.000009   0.005361   0.000350  -0.021456
    11  H   -0.000009   0.000009   0.000000   0.000365   0.000014  -0.006209
    12  C    0.000008   0.000000   0.000000  -0.000371  -0.000008   0.002269
    13  H    0.000000   0.000000   0.000000  -0.000022   0.000009   0.001581
    14  H    0.000000   0.000000   0.000000   0.000009   0.000000  -0.000511
               7          8          9         10         11         12
     1  C   -0.007169   0.002366   0.000927  -0.000370  -0.000009   0.000008
     2  H    0.003016   0.001597   0.000025  -0.000024   0.000009   0.000000
     3  H    0.000094  -0.000517  -0.000018   0.000009   0.000000   0.000000
     4  C   -0.049562  -0.022317  -0.014477   0.005361   0.000365  -0.000371
     5  H    0.006280  -0.006177   0.002772   0.000350   0.000014  -0.000008
     6  C    0.387250   0.567525  -0.040219  -0.021456  -0.006209   0.002269
     7  H    0.729402  -0.039928   0.010647  -0.014699   0.002766   0.000963
     8  C   -0.039928   4.798623   0.387435   0.379558  -0.050894  -0.035300
     9  H    0.010647   0.387435   0.728928  -0.049237   0.006280  -0.007093
    10  C   -0.014699   0.379558  -0.049237   4.664781   0.388687   0.683948
    11  H    0.002766  -0.050894   0.006280   0.388687   0.731923  -0.041833
    12  C    0.000963  -0.035300  -0.007093   0.683948  -0.041833   4.614005
    13  H    0.000025  -0.022243   0.003037  -0.004264   0.011230   0.372245
    14  H   -0.000018   0.007636   0.000081   0.005453  -0.016366   0.361342
              13         14
     1  C    0.000000   0.000000
     2  H    0.000000   0.000000
     3  H    0.000000   0.000000
     4  C   -0.000022   0.000009
     5  H    0.000009   0.000000
     6  C    0.001581  -0.000511
     7  H    0.000025  -0.000018
     8  C   -0.022243   0.007636
     9  H    0.003037   0.000081
    10  C   -0.004264   0.005453
    11  H    0.011230  -0.016366
    12  C    0.372245   0.361342
    13  H    0.694396  -0.057980
    14  H   -0.057980   0.692861
 Mulliken charges:
               1
     1  C    0.050344
     2  H    0.002356
     3  H    0.007422
     4  C   -0.037341
     5  H   -0.025735
     6  C    0.033230
     7  H   -0.029067
     8  C    0.032634
     9  H   -0.029088
    10  C   -0.038097
    11  H   -0.025964
    12  C    0.049826
    13  H    0.001986
    14  H    0.007494
 Sum of Mulliken charges =   0.00000
 Mulliken charges with hydrogens summed into heavy atoms:
               1
     1  C    0.060122
     4  C   -0.063076
     6  C    0.004163
     8  C    0.003546
    10  C   -0.064061
    12  C    0.059307
 Electronic spatial extent (au):  <R**2>=            936.3187
 Charge=              0.0000 electrons
 Dipole moment (field-independent basis, Debye):
    X=             -0.0070    Y=              0.0094    Z=              0.0000  Tot=              0.0117
 Quadrupole moment (field-independent basis, Debye-Ang):
   XX=            -33.2256   YY=            -34.8151   ZZ=            -41.4098
   XY=              0.5435   XZ=              0.0000   YZ=              0.0000
 Traceless Quadrupole moment (field-independent basis, Debye-Ang):
   XX=              3.2579   YY=              1.6684   ZZ=             -4.9263
   XY=              0.5435   XZ=              0.0000   YZ=              0.0000
 Octapole moment (field-independent basis, Debye-Ang**2):
  XXX=             -0.0206  YYY=              0.0960  ZZZ=              0.0000  XYY=             -0.0449
  XXY=              0.0046  XXZ=              0.0000  XZZ=             -0.0054  YZZ=              0.0098
  YYZ=              0.0000  XYZ=              0.0000
 Hexadecapole moment (field-independent basis, Debye-Ang**3):
 XXXX=           -321.8191 YYYY=           -873.8457 ZZZZ=            -45.6699 XXXY=            199.0593
 XXXZ=              0.0000 YYYX=            207.7088 YYYZ=              0.0000 ZZZX=              0.0000
 ZZZY=              0.0000 XXYY=           -192.6187 XXZZ=            -72.6572 YYZZ=           -177.8942
 XXYZ=              0.0000 YYXZ=              0.0000 ZZXY=             82.3654
 N-N= 1.911474021663D+02 E-N=-9.221145256101D+02  KE= 2.314845293693D+02
 Symmetry A'   KE= 2.252213215904D+02
 Symmetry A"   KE= 6.263207778880D+00
 Calling FoFJK, ICntrl=      2127 FMM=F ISym2X=1 I1Cent= 0 IOpClX= 0 NMat=1 NMatS=1 NMatT=0.
 ***** Axes restored to original set *****
 -------------------------------------------------------------------
 Center     Atomic                   Forces (Hartrees/Bohr)
 Number     Number              X              Y              Z
 -------------------------------------------------------------------
      1        6           0.011347776    0.031562318    0.000000000
      2        1           0.005566401   -0.015622502    0.000000000
      3        1          -0.016234163   -0.003700714    0.000000000
      4        6           0.046830552   -0.044342377    0.000000000
      5        1          -0.004028146    0.017094406    0.000000000
      6        6          -0.053381090    0.039487640    0.000000000
      7        1           0.003924209   -0.016989808    0.000000000
      8        6           0.053509866   -0.039545784    0.000000000
      9        1          -0.004102109    0.016822343    0.000000000
     10        6          -0.045581311    0.044472339    0.000000000
     11        1           0.003636590   -0.017391756    0.000000000
     12        6          -0.012359366   -0.031069215    0.000000000
     13        1          -0.005365093    0.015763861    0.000000000
     14        1           0.016235884    0.003459249    0.000000000
 -------------------------------------------------------------------
 Cartesian Forces:  Max     0.053509866 RMS     0.022692007

 GradGradGradGradGradGradGradGradGradGradGradGradGradGradGradGradGradGrad
 Berny optimization.
 FormGI is forming the generalized inverse of G from B-inverse, IUseBI=4.
 Internal  Forces:  Max     0.043521929 RMS     0.011914423
 Search for a local minimum.
 Step number   1 out of a maximum of   61
 All quantities printed in internal units (Hartrees-Bohrs-Radians)
 Mixed Optimization -- RFO/linear search
 Second derivative matrix not updated -- first step.
 ITU=  0
     Eigenvalues ---    0.00237   0.00237   0.01459   0.01459   0.01463
     Eigenvalues ---    0.01463   0.02681   0.02681   0.02681   0.02681
     Eigenvalues ---    0.02681   0.16000   0.16000   0.16000   0.16000
     Eigenvalues ---    0.16000   0.16000   0.16000   0.16000   0.22000
     Eigenvalues ---    0.22000   0.22000   0.22000   0.28519   0.28519
     Eigenvalues ---    0.37230   0.37230   0.37230   0.37230   0.37230
     Eigenvalues ---    0.37230   0.37230   0.37230   0.53930   0.53930
     Eigenvalues ---    0.53930
 RFO step:  Lambda=-2.28240260D-02 EMin= 2.36824193D-03
 Linear search not attempted -- first point.
 Iteration  1 RMS(Cart)=  0.04638410 RMS(Int)=  0.00063043
 Iteration  2 RMS(Cart)=  0.00143790 RMS(Int)=  0.00000021
 Iteration  3 RMS(Cart)=  0.00000028 RMS(Int)=  0.00000000
 ClnCor:  largest displacement from symmetrization is 1.79D-08 for atom     5.
 Variable       Old X    -DE/DX   Delta X   Delta X   Delta X     New X
                                 (Linear)    (Quad)   (Total)
    R1        2.02201   0.01632   0.00000   0.04130   0.04130   2.06331
    R2        2.02201   0.01623   0.00000   0.04109   0.04109   2.06309
    R3        2.56096  -0.01095   0.00000  -0.01948  -0.01948   2.54148
    R4        2.02201   0.01683   0.00000   0.04259   0.04259   2.06460
    R5        2.91018  -0.04348   0.00000  -0.14117  -0.14117   2.76901
    R6        2.02201   0.01669   0.00000   0.04223   0.04223   2.06424
    R7        2.56096  -0.00346   0.00000  -0.00616  -0.00616   2.55479
    R8        2.02201   0.01666   0.00000   0.04216   0.04216   2.06416
    R9        2.91018  -0.04352   0.00000  -0.14130  -0.14130   2.76888
   R10        2.02201   0.01692   0.00000   0.04283   0.04283   2.06484
   R11        2.56096  -0.01096   0.00000  -0.01949  -0.01949   2.54146
   R12        2.02201   0.01638   0.00000   0.04145   0.04145   2.06346
   R13        2.02201   0.01619   0.00000   0.04098   0.04098   2.06299
    A1        2.09241  -0.00449   0.00000  -0.02455  -0.02455   2.06787
    A2        2.09836   0.00149   0.00000   0.00817   0.00817   2.10653
    A3        2.09241   0.00299   0.00000   0.01637   0.01637   2.10879
    A4        2.09836  -0.00082   0.00000   0.00350   0.00350   2.10186
    A5        2.09241   0.01180   0.00000   0.04858   0.04858   2.14099
    A6        2.09241  -0.01098   0.00000  -0.05208  -0.05208   2.04033
    A7        2.09241  -0.01038   0.00000  -0.04966  -0.04966   2.04275
    A8        2.09836   0.01052   0.00000   0.04332   0.04332   2.14167
    A9        2.09241  -0.00014   0.00000   0.00634   0.00634   2.09876
   A10        2.09836  -0.00089   0.00000   0.00280   0.00280   2.10116
   A11        2.09241   0.01133   0.00000   0.04668   0.04668   2.13909
   A12        2.09241  -0.01045   0.00000  -0.04948  -0.04948   2.04294
   A13        2.09241  -0.01091   0.00000  -0.05234  -0.05234   2.04007
   A14        2.09836   0.01088   0.00000   0.04482   0.04482   2.14317
   A15        2.09241   0.00003   0.00000   0.00752   0.00752   2.09994
   A16        2.09836   0.00160   0.00000   0.00873   0.00873   2.10708
   A17        2.09241   0.00289   0.00000   0.01583   0.01583   2.10824
   A18        2.09241  -0.00449   0.00000  -0.02455  -0.02455   2.06786
    D1        3.14159   0.00000   0.00000   0.00000   0.00000   3.14159
    D2        0.00000   0.00000   0.00000   0.00000   0.00000   0.00000
    D3        0.00000   0.00000   0.00000   0.00000   0.00000   0.00000
    D4        3.14159   0.00000   0.00000   0.00000   0.00000   3.14159
    D5        0.00000   0.00000   0.00000   0.00000   0.00000   0.00000
    D6        3.14159   0.00000   0.00000   0.00000   0.00000   3.14159
    D7        3.14159   0.00000   0.00000   0.00000   0.00000   3.14159
    D8        0.00000   0.00000   0.00000   0.00000   0.00000   0.00000
    D9        0.00000   0.00000   0.00000   0.00000   0.00000   0.00000
   D10        3.14159   0.00000   0.00000   0.00000   0.00000   3.14159
   D11        3.14159   0.00000   0.00000   0.00000   0.00000   3.14159
   D12        0.00000   0.00000   0.00000   0.00000   0.00000   0.00000
   D13        0.00000   0.00000   0.00000   0.00000   0.00000   0.00000
   D14        3.14159   0.00000   0.00000   0.00000   0.00000   3.14159
   D15        3.14159   0.00000   0.00000   0.00000   0.00000   3.14159
   D16        0.00000   0.00000   0.00000   0.00000   0.00000   0.00000
   D17        0.00000   0.00000   0.00000   0.00000   0.00000   0.00000
   D18        3.14159   0.00000   0.00000   0.00000   0.00000   3.14159
   D19        3.14159   0.00000   0.00000   0.00000   0.00000   3.14159
   D20        0.00000   0.00000   0.00000   0.00000   0.00000   0.00000
         Item               Value     Threshold  Converged?
 Maximum Force            0.043522     0.000450     NO 
 RMS     Force            0.011914     0.000300     NO 
 Maximum Displacement     0.160266     0.001800     NO 
 RMS     Displacement     0.047159     0.001200     NO 
 Predicted change in Energy=-1.227323D-02
 GradGradGradGradGradGradGradGradGradGradGradGradGradGradGradGradGradGrad

                          Input orientation:                          
 ---------------------------------------------------------------------
 Center     Atomic      Atomic             Coordinates (Angstroms)
 Number     Number       Type             X           Y           Z
 ---------------------------------------------------------------------
      1          6           0       -1.741022   -0.554405    0.000000
      2          1           0       -1.234313   -1.521562    0.000000
      3          1           0       -2.832650   -0.538605    0.000000
      4          6           0       -1.035240    0.590410    0.000000
      5          1           0       -1.546780    1.555793    0.000000
      6          6           0        0.429828    0.616388    0.000000
      7          1           0        0.943613   -0.347586    0.000000
      8          6           0        1.140093    1.766719    0.000000
      9          1           0        0.628641    2.731890    0.000000
     10          6           0        2.605153    1.788914    0.000000
     11          1           0        3.114008    0.821968    0.000000
     12          6           0        3.316376    2.930351    0.000000
     13          1           0        2.814777    3.900257    0.000000
     14          1           0        4.407850    2.908758    0.000000
 ---------------------------------------------------------------------
                    Distance matrix (angstroms):
                    1          2          3          4          5
     1  C    0.000000
     2  H    1.091854   0.000000
     3  H    1.091742   1.876402   0.000000
     4  C    1.344891   2.121333   2.122583   0.000000
     5  H    2.119120   3.093178   2.457634   1.092538   0.000000
     6  C    2.466445   2.709280   3.460892   1.465298   2.188484
     7  H    2.692591   2.474184   3.781092   2.189907   3.134471
     8  C    3.699790   4.055934   4.593170   2.473010   2.695140
     9  H    4.051548   4.643539   4.762003   2.711906   2.472986
    10  C    4.937650   5.069591   5.914985   3.832606   4.158473
    11  H    5.046357   4.939639   6.100320   4.155704   4.718204
    12  C    6.141726   6.366184   7.060041   4.940838   5.053681
    13  H    6.371760   6.766923   7.183100   5.077176   4.951736
    14  H    7.057062   7.173684   8.019299   5.916246   6.106401
                    6          7          8          9         10
     6  C    0.000000
     7  H    1.092347   0.000000
     8  C    1.351939   2.123414   0.000000
     9  H    2.124823   3.095542   1.092309   0.000000
    10  C    2.471206   2.706538   1.465228   2.189933   0.000000
    11  H    2.692041   2.465455   2.188354   3.134462   1.092665
    12  C    3.699538   4.046587   2.467842   2.695052   1.344885
    13  H    4.058543   4.641704   2.712295   2.478764   2.121723
    14  H    4.591255   4.754441   3.461573   3.783346   2.122208
                   11         12         13         14
    11  H    0.000000
    12  C    2.118072   0.000000
    13  H    3.092798   1.091933   0.000000
    14  H    2.455345   1.091688   1.876420   0.000000
 Stoichiometry    C6H8
 Framework group  CS[SG(C6H8)]
 Deg. of freedom    25
 Full point group                 CS      NOp   2
 Largest Abelian subgroup         CS      NOp   2
 Largest concise Abelian subgroup C1      NOp   1
                         Standard orientation:                         
 ---------------------------------------------------------------------
 Center     Atomic      Atomic             Coordinates (Angstroms)
 Number     Number       Type             X           Y           Z
 ---------------------------------------------------------------------
      1          6           0       -1.225784    2.815140    0.000000
      2          1           0       -0.284904    3.369117    0.000000
      3          1           0       -2.161286    3.377935    0.000000
      4          6           0       -1.230625    1.470258    0.000000
      5          1           0       -2.174673    0.920337    0.000000
      6          6           0        0.000000    0.674859    0.000000
      7          1           0        0.945210    1.222398    0.000000
      8          6           0       -0.003945   -0.677074    0.000000
      9          1           0       -0.947806   -1.226860    0.000000
     10          6           0        1.228670   -1.469255    0.000000
     11          1           0        2.171262   -0.916589    0.000000
     12          6           0        1.230233   -2.814139    0.000000
     13          1           0        0.292242   -3.373148    0.000000
     14          1           0        2.168662   -3.371932    0.000000
 ---------------------------------------------------------------------
 Rotational constants (GHZ):          25.6743861           1.3395751           1.2731479
 Standard basis: CC-pVDZ (5D, 7F)
 There are    98 symmetry adapted cartesian basis functions of A'  symmetry.
 There are    32 symmetry adapted cartesian basis functions of A"  symmetry.
 There are    92 symmetry adapted basis functions of A'  symmetry.
 There are    32 symmetry adapted basis functions of A"  symmetry.
   124 basis functions,   254 primitive gaussians,   130 cartesian basis functions
    22 alpha electrons       22 beta electrons
       nuclear repulsion energy       193.3771504297 Hartrees.
 NAtoms=   14 NActive=   14 NUniq=   14 SFac= 1.00D+00 NAtFMM=   60 NAOKFM=F Big=F
 Integral buffers will be    131072 words long.
 Raffenetti 2 integral format.
 Two-electron integral symmetry is turned on.
 One-electron integrals computed using PRISM.
 NBasis=   124 RedAO= T EigKep=  1.27D-03  NBF=    92    32
 NBsUse=   124 1.00D-06 EigRej= -1.00D+00 NBFU=    92    32
 Initial guess from the checkpoint file:  "C6H8_opt.chk"
 B after Tr=     0.000000    0.000000    0.000000
         Rot=    0.999919    0.000000    0.000000    0.012713 Ang=   1.46 deg.
 Initial guess orbital symmetries:
       Occupied  (A') (A') (A') (A') (A') (A') (A') (A') (A') (A')
                 (A') (A') (A') (A') (A') (A') (A') (A') (A') (A")
                 (A") (A")
       Virtual   (A") (A") (A") (A') (A') (A') (A') (A') (A') (A')
                 (A') (A') (A') (A') (A') (A') (A') (A') (A") (A')
                 (A") (A') (A') (A') (A") (A') (A") (A') (A") (A")
                 (A') (A') (A') (A') (A') (A') (A') (A') (A') (A')
                 (A") (A") (A') (A') (A") (A") (A') (A') (A") (A")
                 (A") (A') (A') (A') (A') (A') (A") (A') (A') (A')
                 (A') (A') (A") (A') (A") (A') (A') (A") (A') (A")
                 (A") (A') (A") (A') (A') (A") (A") (A') (A') (A')
                 (A") (A') (A") (A') (A") (A") (A') (A') (A') (A')
                 (A') (A') (A') (A') (A') (A') (A') (A') (A') (A')
                 (A') (A')
 ExpMin= 1.22D-01 ExpMax= 6.67D+03 ExpMxC= 2.28D+02 IAcc=2 IRadAn=         4 AccDes= 0.00D+00
 Harris functional with IExCor=  402 and IRadAn=       4 diagonalized for initial guess.
 HarFok:  IExCor=  402 AccDes= 0.00D+00 IRadAn=         4 IDoV= 1 UseB2=F ITyADJ=14
 ICtDFT=  3500011 ScaDFX=  1.000000  1.000000  1.000000  1.000000
 FoFCou: FMM=F IPFlag=           0 FMFlag=      100000 FMFlg1=           0
         NFxFlg=           0 DoJE=T BraDBF=F KetDBF=T FulRan=T
         wScrn=  0.000000 ICntrl=       500 IOpCl=  0 I1Cent=   200000004 NGrid=           0
         NMat0=    1 NMatS0=      1 NMatT0=    0 NMatD0=    1 NMtDS0=    0 NMtDT0=    0
 Petite list used in FoFCou.
 Keep R1 ints in memory in symmetry-blocked form, NReq=45939857.
 Requested convergence on RMS density matrix=1.00D-08 within 128 cycles.
 Requested convergence on MAX density matrix=1.00D-06.
 Requested convergence on             energy=1.00D-06.
 No special actions if energy rises.
 Integral accuracy reduced to 1.0D-05 until final iterations.
 Initial convergence to 1.0D-05 achieved.  Increase integral accuracy.
 SCF Done:  E(RB3LYP) =  -233.411237289     A.U. after   11 cycles
            NFock= 11  Conv=0.73D-08     -V/T= 2.0080
 Calling FoFJK, ICntrl=      2127 FMM=F ISym2X=1 I1Cent= 0 IOpClX= 0 NMat=1 NMatS=1 NMatT=0.
 ***** Axes restored to original set *****
 -------------------------------------------------------------------
 Center     Atomic                   Forces (Hartrees/Bohr)
 Number     Number              X              Y              Z
 -------------------------------------------------------------------
      1        6          -0.002809648    0.004679789    0.000000000
      2        1          -0.000932882   -0.001722242    0.000000000
      3        1          -0.000168864   -0.002092138    0.000000000
      4        6           0.011505560   -0.008003214    0.000000000
      5        1          -0.001097897    0.001639290    0.000000000
      6        6          -0.015550502    0.008496792    0.000000000
      7        1           0.001615096   -0.001602728    0.000000000
      8        6           0.015591298   -0.008493735    0.000000000
      9        1          -0.001720580    0.001559984    0.000000000
     10        6          -0.011146545    0.007958735    0.000000000
     11        1           0.000977879   -0.001639473    0.000000000
     12        6           0.002579078   -0.004562415    0.000000000
     13        1           0.000945830    0.001670570    0.000000000
     14        1           0.000212176    0.002110784    0.000000000
 -------------------------------------------------------------------
 Cartesian Forces:  Max     0.015591298 RMS     0.005129419

 GradGradGradGradGradGradGradGradGradGradGradGradGradGradGradGradGradGrad
 Berny optimization.
 Using GEDIIS/GDIIS optimizer.
 FormGI is forming the generalized inverse of G from B-inverse, IUseBI=4.
 Internal  Forces:  Max     0.006396745 RMS     0.002487626
 Search for a local minimum.
 Step number   2 out of a maximum of   61
 All quantities printed in internal units (Hartrees-Bohrs-Radians)
 Mixed Optimization -- RFO/linear search
 Update second derivatives using D2CorX and points    1    2
 DE= -1.36D-02 DEPred=-1.23D-02 R= 1.11D+00
 TightC=F SS=  1.41D+00  RLast= 2.75D-01 DXNew= 5.0454D-01 8.2413D-01
 Trust test= 1.11D+00 RLast= 2.75D-01 DXMaxT set to 5.05D-01
 ITU=  1  0
 Use linear search instead of GDIIS.
     Eigenvalues ---    0.00237   0.00237   0.01496   0.01498   0.01499
     Eigenvalues ---    0.01500   0.02681   0.02681   0.02681   0.02681
     Eigenvalues ---    0.02681   0.15525   0.16000   0.16000   0.16000
     Eigenvalues ---    0.16000   0.16000   0.16000   0.16424   0.19176
     Eigenvalues ---    0.22000   0.22000   0.22001   0.28518   0.28587
     Eigenvalues ---    0.37036   0.37230   0.37230   0.37230   0.37230
     Eigenvalues ---    0.37230   0.37230   0.38202   0.53897   0.53930
     Eigenvalues ---    0.54792
 RFO step:  Lambda=-8.59206381D-04 EMin= 2.36824193D-03
 Quartic linear search produced a step of  0.17706.
 Iteration  1 RMS(Cart)=  0.01828472 RMS(Int)=  0.00013548
 Iteration  2 RMS(Cart)=  0.00031178 RMS(Int)=  0.00000000
 Iteration  3 RMS(Cart)=  0.00000001 RMS(Int)=  0.00000000
 ClnCor:  largest displacement from symmetrization is 5.77D-11 for atom     3.
 Variable       Old X    -DE/DX   Delta X   Delta X   Delta X     New X
                                 (Linear)    (Quad)   (Total)
    R1        2.06331   0.00109   0.00731  -0.00338   0.00393   2.06724
    R2        2.06309   0.00014   0.00727  -0.00635   0.00092   2.06402
    R3        2.54148   0.00132  -0.00345   0.00593   0.00248   2.54396
    R4        2.06460   0.00196   0.00754  -0.00085   0.00669   2.07129
    R5        2.76901  -0.00640  -0.02500  -0.00190  -0.02689   2.74212
    R6        2.06424   0.00217   0.00748  -0.00012   0.00736   2.07159
    R7        2.55479   0.00272  -0.00109   0.00690   0.00580   2.56060
    R8        2.06416   0.00218   0.00746  -0.00008   0.00739   2.07155
    R9        2.76888  -0.00635  -0.02502  -0.00166  -0.02668   2.74220
   R10        2.06484   0.00191   0.00758  -0.00106   0.00652   2.07136
   R11        2.54146   0.00131  -0.00345   0.00593   0.00248   2.54394
   R12        2.06346   0.00105   0.00734  -0.00354   0.00380   2.06725
   R13        2.06299   0.00017   0.00726  -0.00623   0.00102   2.06401
    A1        2.06787  -0.00256  -0.00435  -0.01383  -0.01818   2.04969
    A2        2.10653   0.00080   0.00145   0.00420   0.00565   2.11218
    A3        2.10879   0.00176   0.00290   0.00963   0.01253   2.12132
    A4        2.10186  -0.00302   0.00062  -0.01762  -0.01700   2.08486
    A5        2.14099   0.00563   0.00860   0.02112   0.02973   2.17072
    A6        2.04033  -0.00261  -0.00922  -0.00351  -0.01273   2.02761
    A7        2.04275  -0.00197  -0.00879   0.00040  -0.00839   2.03436
    A8        2.14167   0.00533   0.00767   0.02047   0.02814   2.16982
    A9        2.09876  -0.00336   0.00112  -0.02087  -0.01975   2.07901
   A10        2.10116  -0.00367   0.00050  -0.02208  -0.02159   2.07957
   A11        2.13909   0.00570   0.00826   0.02184   0.03011   2.16920
   A12        2.04294  -0.00204  -0.00876   0.00024  -0.00852   2.03441
   A13        2.04007  -0.00255  -0.00927  -0.00333  -0.01260   2.02747
   A14        2.14317   0.00531   0.00794   0.02011   0.02804   2.17121
   A15        2.09994  -0.00276   0.00133  -0.01677  -0.01544   2.08450
   A16        2.10708   0.00076   0.00155   0.00381   0.00536   2.11244
   A17        2.10824   0.00180   0.00280   0.01003   0.01284   2.12108
   A18        2.06786  -0.00256  -0.00435  -0.01384  -0.01819   2.04967
    D1        3.14159   0.00000   0.00000   0.00000   0.00000   3.14159
    D2        0.00000   0.00000   0.00000   0.00000   0.00000   0.00000
    D3        0.00000   0.00000   0.00000   0.00000   0.00000   0.00000
    D4        3.14159   0.00000   0.00000   0.00000   0.00000   3.14159
    D5        0.00000   0.00000   0.00000   0.00000   0.00000   0.00000
    D6        3.14159   0.00000   0.00000   0.00000   0.00000   3.14159
    D7        3.14159   0.00000   0.00000   0.00000   0.00000   3.14159
    D8        0.00000   0.00000   0.00000   0.00000   0.00000   0.00000
    D9        0.00000   0.00000   0.00000   0.00000   0.00000   0.00000
   D10        3.14159   0.00000   0.00000   0.00000   0.00000   3.14159
   D11        3.14159   0.00000   0.00000   0.00000   0.00000   3.14159
   D12        0.00000   0.00000   0.00000   0.00000   0.00000   0.00000
   D13        0.00000   0.00000   0.00000   0.00000   0.00000   0.00000
   D14        3.14159   0.00000   0.00000   0.00000   0.00000   3.14159
   D15        3.14159   0.00000   0.00000   0.00000   0.00000   3.14159
   D16        0.00000   0.00000   0.00000   0.00000   0.00000   0.00000
   D17        0.00000   0.00000   0.00000   0.00000   0.00000   0.00000
   D18        3.14159   0.00000   0.00000   0.00000   0.00000   3.14159
   D19        3.14159   0.00000   0.00000   0.00000   0.00000   3.14159
   D20        0.00000   0.00000   0.00000   0.00000   0.00000   0.00000
         Item               Value     Threshold  Converged?
 Maximum Force            0.006397     0.000450     NO 
 RMS     Force            0.002488     0.000300     NO 
 Maximum Displacement     0.063777     0.001800     NO 
 RMS     Displacement     0.018060     0.001200     NO 
 Predicted change in Energy=-8.277143D-04
 GradGradGradGradGradGradGradGradGradGradGradGradGradGradGradGradGradGrad

                          Input orientation:                          
 ---------------------------------------------------------------------
 Center     Atomic      Atomic             Coordinates (Angstroms)
 Number     Number       Type             X           Y           Z
 ---------------------------------------------------------------------
      1          6           0       -1.754125   -0.560266    0.000000
      2          1           0       -1.268063   -1.540285    0.000000
      3          1           0       -2.846170   -0.540094    0.000000
      4          6           0       -1.028811    0.573835    0.000000
      5          1           0       -1.542464    1.542108    0.000000
      6          6           0        0.421562    0.618707    0.000000
      7          1           0        0.941822   -0.346213    0.000000
      8          6           0        1.150591    1.760885    0.000000
      9          1           0        0.630885    2.726079    0.000000
     10          6           0        2.601032    1.804865    0.000000
     11          1           0        3.113977    0.836177    0.000000
     12          6           0        3.327601    2.938151    0.000000
     13          1           0        2.842879    3.918842    0.000000
     14          1           0        4.419616    2.916500    0.000000
 ---------------------------------------------------------------------
                    Distance matrix (angstroms):
                    1          2          3          4          5
     1  C    0.000000
     2  H    1.093935   0.000000
     3  H    1.092231   1.868370   0.000000
     4  C    1.346204   2.127615   2.131580   0.000000
     5  H    2.113002   3.094583   2.456667   1.096080   0.000000
     6  C    2.474589   2.741547   3.467116   1.451067   2.170270
     7  H    2.704431   2.511851   3.792950   2.174829   3.120486
     8  C    3.718214   4.092384   4.611789   2.481708   2.701927
     9  H    4.060583   4.669889   4.770513   2.717856   2.474921
    10  C    4.955929   5.114677   5.930500   3.832909   4.151819
    11  H    5.064432   4.984962   6.116982   4.151086   4.709648
    12  C    6.169511   6.416893   7.086158   4.956643   5.066209
    13  H    6.418322   6.833880   7.228236   5.116547   4.987996
    14  H    7.085406   7.225830   8.046098   5.930720   6.118444
                    6          7          8          9         10
     6  C    0.000000
     7  H    1.096239   0.000000
     8  C    1.355010   2.117415   0.000000
     9  H    2.117742   3.087986   1.096217   0.000000
    10  C    2.481342   2.716636   1.451108   2.174882   0.000000
    11  H    2.701183   2.473116   2.170247   3.120492   1.096115
    12  C    3.718183   4.059432   2.474941   2.705042   1.346195
    13  H    4.093125   4.669552   2.742375   2.513086   2.127767
    14  H    4.611322   4.768685   3.467272   3.793513   2.131428
                   11         12         13         14
    11  H    0.000000
    12  C    2.112801   0.000000
    13  H    3.094563   1.093943   0.000000
    14  H    2.456102   1.092229   1.868365   0.000000
 Stoichiometry    C6H8
 Framework group  CS[SG(C6H8)]
 Deg. of freedom    25
 Full point group                 CS      NOp   2
 Largest Abelian subgroup         CS      NOp   2
 Largest concise Abelian subgroup C1      NOp   1
                         Standard orientation:                         
 ---------------------------------------------------------------------
 Center     Atomic      Atomic             Coordinates (Angstroms)
 Number     Number       Type             X           Y           Z
 ---------------------------------------------------------------------
      1          6           0       -1.198072    2.842484    0.000000
      2          1           0       -0.260675    3.406381    0.000000
      3          1           0       -2.129030    3.413699    0.000000
      4          6           0       -1.197829    1.496280    0.000000
      5          1           0       -2.152147    0.957141    0.000000
      6          6           0        0.000000    0.677256    0.000000
      7          1           0        0.958077    1.210011    0.000000
      8          6           0       -0.000978   -0.677754    0.000000
      9          1           0       -0.958736   -1.211040    0.000000
     10          6           0        1.197389   -1.496064    0.000000
     11          1           0        2.151333   -0.956194    0.000000
     12          6           0        1.199129   -2.842258    0.000000
     13          1           0        0.262498   -3.407444    0.000000
     14          1           0        2.130857   -3.412211    0.000000
 ---------------------------------------------------------------------
 Rotational constants (GHZ):          26.4288472           1.3279964           1.2644598
 Standard basis: CC-pVDZ (5D, 7F)
 There are    98 symmetry adapted cartesian basis functions of A'  symmetry.
 There are    32 symmetry adapted cartesian basis functions of A"  symmetry.
 There are    92 symmetry adapted basis functions of A'  symmetry.
 There are    32 symmetry adapted basis functions of A"  symmetry.
   124 basis functions,   254 primitive gaussians,   130 cartesian basis functions
    22 alpha electrons       22 beta electrons
       nuclear repulsion energy       193.2488010628 Hartrees.
 NAtoms=   14 NActive=   14 NUniq=   14 SFac= 1.00D+00 NAtFMM=   60 NAOKFM=F Big=F
 Integral buffers will be    131072 words long.
 Raffenetti 2 integral format.
 Two-electron integral symmetry is turned on.
 One-electron integrals computed using PRISM.
 NBasis=   124 RedAO= T EigKep=  1.26D-03  NBF=    92    32
 NBsUse=   124 1.00D-06 EigRej= -1.00D+00 NBFU=    92    32
 Initial guess from the checkpoint file:  "C6H8_opt.chk"
 B after Tr=     0.000000    0.000000    0.000000
         Rot=    0.999977    0.000000    0.000000    0.006843 Ang=   0.78 deg.
 Initial guess orbital symmetries:
       Occupied  (A') (A') (A') (A') (A') (A') (A') (A') (A') (A')
                 (A') (A') (A') (A') (A') (A') (A') (A') (A') (A")
                 (A") (A")
       Virtual   (A") (A") (A') (A") (A') (A') (A') (A') (A') (A')
                 (A') (A') (A') (A') (A') (A') (A') (A') (A") (A")
                 (A') (A') (A') (A') (A') (A") (A") (A') (A") (A")
                 (A') (A') (A') (A') (A') (A') (A') (A') (A') (A')
                 (A") (A") (A') (A') (A") (A") (A') (A') (A") (A")
                 (A") (A') (A') (A') (A') (A') (A") (A') (A') (A')
                 (A') (A') (A") (A') (A") (A') (A") (A') (A') (A")
                 (A") (A') (A") (A') (A') (A") (A") (A') (A') (A')
                 (A") (A") (A') (A') (A') (A") (A") (A') (A') (A')
                 (A') (A') (A') (A') (A') (A') (A') (A') (A') (A')
                 (A') (A')
 ExpMin= 1.22D-01 ExpMax= 6.67D+03 ExpMxC= 2.28D+02 IAcc=2 IRadAn=         4 AccDes= 0.00D+00
 Harris functional with IExCor=  402 and IRadAn=       4 diagonalized for initial guess.
 HarFok:  IExCor=  402 AccDes= 0.00D+00 IRadAn=         4 IDoV= 1 UseB2=F ITyADJ=14
 ICtDFT=  3500011 ScaDFX=  1.000000  1.000000  1.000000  1.000000
 FoFCou: FMM=F IPFlag=           0 FMFlag=      100000 FMFlg1=           0
         NFxFlg=           0 DoJE=T BraDBF=F KetDBF=T FulRan=T
         wScrn=  0.000000 ICntrl=       500 IOpCl=  0 I1Cent=   200000004 NGrid=           0
         NMat0=    1 NMatS0=      1 NMatT0=    0 NMatD0=    1 NMtDS0=    0 NMtDT0=    0
 Petite list used in FoFCou.
 Keep R1 ints in memory in symmetry-blocked form, NReq=45939857.
 Requested convergence on RMS density matrix=1.00D-08 within 128 cycles.
 Requested convergence on MAX density matrix=1.00D-06.
 Requested convergence on             energy=1.00D-06.
 No special actions if energy rises.
 Integral accuracy reduced to 1.0D-05 until final iterations.
 Initial convergence to 1.0D-05 achieved.  Increase integral accuracy.
 SCF Done:  E(RB3LYP) =  -233.412038885     A.U. after   10 cycles
            NFock= 10  Conv=0.62D-08     -V/T= 2.0081
 Calling FoFJK, ICntrl=      2127 FMM=F ISym2X=1 I1Cent= 0 IOpClX= 0 NMat=1 NMatS=1 NMatT=0.
 ***** Axes restored to original set *****
 -------------------------------------------------------------------
 Center     Atomic                   Forces (Hartrees/Bohr)
 Number     Number              X              Y              Z
 -------------------------------------------------------------------
      1        6           0.000274201    0.001185060    0.000000000
      2        1          -0.000381094   -0.000330016    0.000000000
      3        1           0.000376573   -0.000209020    0.000000000
      4        6           0.000086213   -0.000491579    0.000000000
      5        1          -0.000633158    0.000125902    0.000000000
      6        6          -0.000456425    0.000717355    0.000000000
      7        1           0.000743897   -0.000290515    0.000000000
      8        6           0.000506538   -0.000716340    0.000000000
      9        1          -0.000771674    0.000286445    0.000000000
     10        6          -0.000064391    0.000468050    0.000000000
     11        1           0.000611217   -0.000118362    0.000000000
     12        6          -0.000291402   -0.001166434    0.000000000
     13        1           0.000372942    0.000319109    0.000000000
     14        1          -0.000373436    0.000220345    0.000000000
 -------------------------------------------------------------------
 Cartesian Forces:  Max     0.001185060 RMS     0.000433100

 GradGradGradGradGradGradGradGradGradGradGradGradGradGradGradGradGradGrad
 Berny optimization.
 Using GEDIIS/GDIIS optimizer.
 FormGI is forming the generalized inverse of G from B-inverse, IUseBI=4.
 Internal  Forces:  Max     0.000690170 RMS     0.000349961
 Search for a local minimum.
 Step number   3 out of a maximum of   61
 All quantities printed in internal units (Hartrees-Bohrs-Radians)
 Mixed Optimization -- En-DIIS/RFO-DIIS
 Update second derivatives using D2CorX and points    1    2    3
 DE= -8.02D-04 DEPred=-8.28D-04 R= 9.68D-01
 TightC=F SS=  1.41D+00  RLast= 8.93D-02 DXNew= 8.4853D-01 2.6780D-01
 Trust test= 9.68D-01 RLast= 8.93D-02 DXMaxT set to 5.05D-01
 ITU=  1  1  0
 Use linear search instead of GDIIS.
     Eigenvalues ---    0.00237   0.00237   0.01488   0.01488   0.01496
     Eigenvalues ---    0.01496   0.02681   0.02681   0.02681   0.02681
     Eigenvalues ---    0.02681   0.14437   0.16000   0.16000   0.16000
     Eigenvalues ---    0.16000   0.16000   0.16053   0.16325   0.20746
     Eigenvalues ---    0.22000   0.22000   0.22069   0.28519   0.29816
     Eigenvalues ---    0.36768   0.37230   0.37230   0.37230   0.37230
     Eigenvalues ---    0.37230   0.37232   0.38525   0.53898   0.53930
     Eigenvalues ---    0.54995
 RFO step:  Lambda=-2.74950535D-05 EMin= 2.36824193D-03
 Quartic linear search produced a step of  0.03191.
 Iteration  1 RMS(Cart)=  0.00304330 RMS(Int)=  0.00000584
 Iteration  2 RMS(Cart)=  0.00000597 RMS(Int)=  0.00000000
 Iteration  3 RMS(Cart)=  0.00000000 RMS(Int)=  0.00000000
 ClnCor:  largest displacement from symmetrization is 1.89D-10 for atom     3.
 Variable       Old X    -DE/DX   Delta X   Delta X   Delta X     New X
                                 (Linear)    (Quad)   (Total)
    R1        2.06724   0.00013   0.00013   0.00043   0.00056   2.06779
    R2        2.06402  -0.00038   0.00003  -0.00091  -0.00089   2.06313
    R3        2.54396  -0.00069   0.00008  -0.00143  -0.00135   2.54261
    R4        2.07129   0.00041   0.00021   0.00117   0.00138   2.07267
    R5        2.74212   0.00027  -0.00086   0.00091   0.00005   2.74217
    R6        2.07159   0.00061   0.00023   0.00171   0.00194   2.07354
    R7        2.56060  -0.00060   0.00019  -0.00126  -0.00108   2.55952
    R8        2.07155   0.00062   0.00024   0.00173   0.00197   2.07352
    R9        2.74220   0.00025  -0.00085   0.00083  -0.00002   2.74217
   R10        2.07136   0.00039   0.00021   0.00113   0.00133   2.07269
   R11        2.54394  -0.00069   0.00008  -0.00142  -0.00134   2.54260
   R12        2.06725   0.00012   0.00012   0.00042   0.00054   2.06779
   R13        2.06401  -0.00038   0.00003  -0.00091  -0.00088   2.06314
    A1        2.04969  -0.00048  -0.00058  -0.00283  -0.00341   2.04628
    A2        2.11218   0.00053   0.00018   0.00336   0.00354   2.11572
    A3        2.12132  -0.00006   0.00040  -0.00053  -0.00013   2.12119
    A4        2.08486  -0.00065  -0.00054  -0.00364  -0.00418   2.08068
    A5        2.17072   0.00026   0.00095   0.00088   0.00183   2.17255
    A6        2.02761   0.00039  -0.00041   0.00275   0.00235   2.02995
    A7        2.03436   0.00058  -0.00027   0.00361   0.00334   2.03770
    A8        2.16982  -0.00009   0.00090  -0.00073   0.00017   2.16999
    A9        2.07901  -0.00049  -0.00063  -0.00288  -0.00351   2.07549
   A10        2.07957  -0.00056  -0.00069  -0.00324  -0.00393   2.07564
   A11        2.16920   0.00000   0.00096  -0.00036   0.00061   2.16981
   A12        2.03441   0.00057  -0.00027   0.00359   0.00332   2.03774
   A13        2.02747   0.00041  -0.00040   0.00281   0.00241   2.02988
   A14        2.17121   0.00019   0.00089   0.00058   0.00147   2.17269
   A15        2.08450  -0.00060  -0.00049  -0.00339  -0.00388   2.08062
   A16        2.11244   0.00051   0.00017   0.00321   0.00338   2.11582
   A17        2.12108  -0.00004   0.00041  -0.00039   0.00002   2.12110
   A18        2.04967  -0.00047  -0.00058  -0.00282  -0.00340   2.04627
    D1        3.14159   0.00000   0.00000   0.00000   0.00000   3.14159
    D2        0.00000   0.00000   0.00000   0.00000   0.00000   0.00000
    D3        0.00000   0.00000   0.00000   0.00000   0.00000   0.00000
    D4        3.14159   0.00000   0.00000   0.00000   0.00000   3.14159
    D5        0.00000   0.00000   0.00000   0.00000   0.00000   0.00000
    D6        3.14159   0.00000   0.00000   0.00000   0.00000   3.14159
    D7        3.14159   0.00000   0.00000   0.00000   0.00000   3.14159
    D8        0.00000   0.00000   0.00000   0.00000   0.00000   0.00000
    D9        0.00000   0.00000   0.00000   0.00000   0.00000   0.00000
   D10        3.14159   0.00000   0.00000   0.00000   0.00000   3.14159
   D11        3.14159   0.00000   0.00000   0.00000   0.00000   3.14159
   D12        0.00000   0.00000   0.00000   0.00000   0.00000   0.00000
   D13        0.00000   0.00000   0.00000   0.00000   0.00000   0.00000
   D14        3.14159   0.00000   0.00000   0.00000   0.00000   3.14159
   D15        3.14159   0.00000   0.00000   0.00000   0.00000   3.14159
   D16        0.00000   0.00000   0.00000   0.00000   0.00000   0.00000
   D17        0.00000   0.00000   0.00000   0.00000   0.00000   0.00000
   D18        3.14159   0.00000   0.00000   0.00000   0.00000   3.14159
   D19        3.14159   0.00000   0.00000   0.00000   0.00000   3.14159
   D20        0.00000   0.00000   0.00000   0.00000   0.00000   0.00000
         Item               Value     Threshold  Converged?
 Maximum Force            0.000690     0.000450     NO 
 RMS     Force            0.000350     0.000300     NO 
 Maximum Displacement     0.009817     0.001800     NO 
 RMS     Displacement     0.003044     0.001200     NO 
 Predicted change in Energy=-1.452435D-05
 GradGradGradGradGradGradGradGradGradGradGradGradGradGradGradGradGradGrad

                          Input orientation:                          
 ---------------------------------------------------------------------
 Center     Atomic      Atomic             Coordinates (Angstroms)
 Number     Number       Type             X           Y           Z
 ---------------------------------------------------------------------
      1          6           0       -1.754659   -0.559673    0.000000
      2          1           0       -1.273257   -1.542319    0.000000
      3          1           0       -2.846205   -0.537899    0.000000
      4          6           0       -1.028208    0.572854    0.000000
      5          1           0       -1.544952    1.540310    0.000000
      6          6           0        0.422172    0.618438    0.000000
      7          1           0        0.946617   -0.345384    0.000000
      8          6           0        1.150530    1.760367    0.000000
      9          1           0        0.626233    2.724261    0.000000
     10          6           0        2.600918    1.805686    0.000000
     11          1           0        3.117419    0.838090    0.000000
     12          6           0        3.327726    2.937978    0.000000
     13          1           0        2.846735    3.920823    0.000000
     14          1           0        4.419265    2.915760    0.000000
 ---------------------------------------------------------------------
                    Distance matrix (angstroms):
                    1          2          3          4          5
     1  C    0.000000
     2  H    1.094230   0.000000
     3  H    1.091763   1.866285   0.000000
     4  C    1.345492   2.129320   2.130465   0.000000
     5  H    2.110428   3.094579   2.451981   1.096812   0.000000
     6  C    2.475184   2.746516   3.466900   1.451096   2.172424
     7  H    2.709763   2.522002   3.797705   2.177865   3.124702
     8  C    3.717890   4.096642   4.610413   2.481347   2.704450
     9  H    4.056214   4.670307   4.764400   2.713987   2.473011
    10  C    4.956407   5.120388   5.929885   3.832809   4.154355
    11  H    5.068618   4.994435   6.120306   4.154103   4.714957
    12  C    6.169619   6.422002   7.085135   4.956609   5.069168
    13  H    6.422435   6.842533   7.231166   5.120945   4.995374
    14  H    7.084912   7.230441   8.044551   5.929939   6.120764
                    6          7          8          9         10
     6  C    0.000000
     7  H    1.097268   0.000000
     8  C    1.354440   2.115601   0.000000
     9  H    2.115687   3.086320   1.097260   0.000000
    10  C    2.481228   2.713635   1.451096   2.177880   0.000000
    11  H    2.704183   2.472446   2.172383   3.124684   1.096821
    12  C    3.717864   4.055878   2.475268   2.709934   1.345487
    13  H    4.096859   4.670222   2.746759   2.522378   2.129373
    14  H    4.610254   4.763858   3.466924   3.797863   2.130411
                   11         12         13         14
    11  H    0.000000
    12  C    2.110393   0.000000
    13  H    3.094594   1.094229   0.000000
    14  H    2.451839   1.091765   1.866281   0.000000
 Stoichiometry    C6H8
 Framework group  CS[SG(C6H8)]
 Deg. of freedom    25
 Full point group                 CS      NOp   2
 Largest Abelian subgroup         CS      NOp   2
 Largest concise Abelian subgroup C1      NOp   1
                         Standard orientation:                         
 ---------------------------------------------------------------------
 Center     Atomic      Atomic             Coordinates (Angstroms)
 Number     Number       Type             X           Y           Z
 ---------------------------------------------------------------------
      1          6           0       -1.201309    2.841257    0.000000
      2          1           0       -0.266899    3.410659    0.000000
      3          1           0       -2.133185    3.410075    0.000000
      4          6           0       -1.198136    1.495769    0.000000
      5          1           0       -2.154168    0.958184    0.000000
      6          6           0        0.000000    0.677142    0.000000
      7          1           0        0.960570    1.207521    0.000000
      8          6           0       -0.000277   -0.677298    0.000000
      9          1           0       -0.960760   -1.207817    0.000000
     10          6           0        1.198008   -1.495706    0.000000
     11          1           0        2.153911   -0.957872    0.000000
     12          6           0        1.201609   -2.841188    0.000000
     13          1           0        0.267438   -3.410979    0.000000
     14          1           0        2.133718   -3.409628    0.000000
 ---------------------------------------------------------------------
 Rotational constants (GHZ):          26.4516715           1.3277249           1.2642659
 Standard basis: CC-pVDZ (5D, 7F)
 There are    98 symmetry adapted cartesian basis functions of A'  symmetry.
 There are    32 symmetry adapted cartesian basis functions of A"  symmetry.
 There are    92 symmetry adapted basis functions of A'  symmetry.
 There are    32 symmetry adapted basis functions of A"  symmetry.
   124 basis functions,   254 primitive gaussians,   130 cartesian basis functions
    22 alpha electrons       22 beta electrons
       nuclear repulsion energy       193.2468425011 Hartrees.
 NAtoms=   14 NActive=   14 NUniq=   14 SFac= 1.00D+00 NAtFMM=   60 NAOKFM=F Big=F
 Integral buffers will be    131072 words long.
 Raffenetti 2 integral format.
 Two-electron integral symmetry is turned on.
 One-electron integrals computed using PRISM.
 NBasis=   124 RedAO= T EigKep=  1.26D-03  NBF=    92    32
 NBsUse=   124 1.00D-06 EigRej= -1.00D+00 NBFU=    92    32
 Initial guess from the checkpoint file:  "C6H8_opt.chk"
 B after Tr=     0.000000    0.000000    0.000000
         Rot=    1.000000    0.000000    0.000000   -0.000408 Ang=  -0.05 deg.
 Initial guess orbital symmetries:
       Occupied  (A') (A') (A') (A') (A') (A') (A') (A') (A') (A')
                 (A') (A') (A') (A') (A') (A') (A') (A') (A') (A")
                 (A") (A")
       Virtual   (A") (A") (A') (A') (A") (A') (A') (A') (A') (A')
                 (A') (A') (A') (A') (A') (A') (A') (A') (A") (A")
                 (A') (A') (A') (A') (A') (A") (A") (A') (A") (A")
                 (A') (A') (A') (A') (A') (A') (A') (A') (A') (A')
                 (A") (A") (A') (A') (A") (A") (A') (A') (A") (A")
                 (A") (A') (A') (A') (A') (A') (A") (A') (A') (A')
                 (A') (A') (A") (A') (A") (A') (A") (A') (A') (A")
                 (A") (A') (A") (A') (A') (A") (A") (A') (A') (A')
                 (A") (A") (A') (A') (A') (A") (A") (A') (A') (A')
                 (A') (A') (A') (A') (A') (A') (A') (A') (A') (A')
                 (A') (A')
 Keep R1 ints in memory in symmetry-blocked form, NReq=45939857.
 Requested convergence on RMS density matrix=1.00D-08 within 128 cycles.
 Requested convergence on MAX density matrix=1.00D-06.
 Requested convergence on             energy=1.00D-06.
 No special actions if energy rises.
 SCF Done:  E(RB3LYP) =  -233.412055092     A.U. after    8 cycles
            NFock=  8  Conv=0.53D-08     -V/T= 2.0080
 Calling FoFJK, ICntrl=      2127 FMM=F ISym2X=1 I1Cent= 0 IOpClX= 0 NMat=1 NMatS=1 NMatT=0.
 ***** Axes restored to original set *****
 -------------------------------------------------------------------
 Center     Atomic                   Forces (Hartrees/Bohr)
 Number     Number              X              Y              Z
 -------------------------------------------------------------------
      1        6           0.000134459    0.000026152    0.000000000
      2        1          -0.000159599   -0.000030578    0.000000000
      3        1           0.000007676   -0.000055316    0.000000000
      4        6          -0.000002151    0.000212806    0.000000000
      5        1          -0.000043949   -0.000086700    0.000000000
      6        6           0.000020632   -0.000298103    0.000000000
      7        1           0.000017068    0.000064872    0.000000000
      8        6          -0.000015950    0.000296640    0.000000000
      9        1          -0.000024805   -0.000064861    0.000000000
     10        6           0.000006792   -0.000219680    0.000000000
     11        1           0.000042302    0.000090748    0.000000000
     12        6          -0.000128737   -0.000023473    0.000000000
     13        1           0.000154671    0.000027969    0.000000000
     14        1          -0.000008409    0.000059524    0.000000000
 -------------------------------------------------------------------
 Cartesian Forces:  Max     0.000298103 RMS     0.000096814

 GradGradGradGradGradGradGradGradGradGradGradGradGradGradGradGradGradGrad
 Berny optimization.
 Using GEDIIS/GDIIS optimizer.
 FormGI is forming the generalized inverse of G from B-inverse, IUseBI=4.
 Internal  Forces:  Max     0.000179007 RMS     0.000066990
 Search for a local minimum.
 Step number   4 out of a maximum of   61
 All quantities printed in internal units (Hartrees-Bohrs-Radians)
 Mixed Optimization -- En-DIIS/RFO-DIIS
 Swapping is turned off.
 Update second derivatives using D2CorX and points    1    2    3    4
 DE= -1.62D-05 DEPred=-1.45D-05 R= 1.12D+00
 TightC=F SS=  1.41D+00  RLast= 1.29D-02 DXNew= 8.4853D-01 3.8552D-02
 Trust test= 1.12D+00 RLast= 1.29D-02 DXMaxT set to 5.05D-01
 ITU=  1  1  1  0
     Eigenvalues ---    0.00237   0.00237   0.01483   0.01484   0.01492
     Eigenvalues ---    0.01492   0.02681   0.02681   0.02681   0.02681
     Eigenvalues ---    0.02681   0.11941   0.16000   0.16000   0.16000
     Eigenvalues ---    0.16000   0.16003   0.16004   0.16623   0.20809
     Eigenvalues ---    0.21935   0.22000   0.22002   0.28519   0.29297
     Eigenvalues ---    0.37220   0.37229   0.37230   0.37230   0.37230
     Eigenvalues ---    0.37230   0.38001   0.38376   0.53867   0.53930
     Eigenvalues ---    0.57332
 En-DIIS/RFO-DIIS/Sim-DIIS IScMMF=       -3 using points:     4    3
 RFO step:  Lambda=-1.37914566D-06.
 DidBck=F Rises=F RFO-DIIS coefs:    1.19649   -0.19649
 Iteration  1 RMS(Cart)=  0.00093583 RMS(Int)=  0.00000058
 Iteration  2 RMS(Cart)=  0.00000057 RMS(Int)=  0.00000000
 ClnCor:  largest displacement from symmetrization is 1.71D-11 for atom     3.
 Variable       Old X    -DE/DX   Delta X   Delta X   Delta X     New X
                                 (Linear)    (Quad)   (Total)
    R1        2.06779  -0.00004   0.00011  -0.00019  -0.00008   2.06772
    R2        2.06313  -0.00001  -0.00017   0.00016  -0.00002   2.06311
    R3        2.54261   0.00006  -0.00026   0.00033   0.00007   2.54268
    R4        2.07267  -0.00006   0.00027  -0.00036  -0.00009   2.07259
    R5        2.74217   0.00006   0.00001   0.00010   0.00011   2.74228
    R6        2.07354  -0.00005   0.00038  -0.00043  -0.00005   2.07349
    R7        2.55952   0.00015  -0.00021   0.00050   0.00029   2.55981
    R8        2.07352  -0.00005   0.00039  -0.00042  -0.00004   2.07348
    R9        2.74217   0.00007   0.00000   0.00012   0.00012   2.74229
   R10        2.07269  -0.00006   0.00026  -0.00036  -0.00010   2.07259
   R11        2.54260   0.00006  -0.00026   0.00034   0.00008   2.54268
   R12        2.06779  -0.00004   0.00011  -0.00018  -0.00008   2.06771
   R13        2.06314  -0.00001  -0.00017   0.00015  -0.00002   2.06312
    A1        2.04628  -0.00015  -0.00067  -0.00050  -0.00117   2.04511
    A2        2.11572   0.00018   0.00070   0.00069   0.00138   2.11710
    A3        2.12119  -0.00003  -0.00003  -0.00019  -0.00021   2.12097
    A4        2.08068  -0.00011  -0.00082  -0.00005  -0.00087   2.07981
    A5        2.17255   0.00006   0.00036   0.00007   0.00043   2.17298
    A6        2.02995   0.00005   0.00046  -0.00002   0.00044   2.03039
    A7        2.03770   0.00010   0.00066  -0.00001   0.00065   2.03835
    A8        2.16999  -0.00010   0.00003  -0.00049  -0.00046   2.16953
    A9        2.07549   0.00000  -0.00069   0.00050  -0.00019   2.07531
   A10        2.07564  -0.00002  -0.00077   0.00045  -0.00032   2.07533
   A11        2.16981  -0.00008   0.00012  -0.00043  -0.00031   2.16949
   A12        2.03774   0.00009   0.00065  -0.00002   0.00063   2.03837
   A13        2.02988   0.00006   0.00047   0.00002   0.00049   2.03037
   A14        2.17269   0.00004   0.00029   0.00003   0.00032   2.17301
   A15        2.08062  -0.00010  -0.00076  -0.00005  -0.00081   2.07981
   A16        2.11582   0.00017   0.00066   0.00064   0.00130   2.11712
   A17        2.12110  -0.00002   0.00000  -0.00015  -0.00014   2.12096
   A18        2.04627  -0.00014  -0.00067  -0.00049  -0.00116   2.04511
    D1        3.14159   0.00000   0.00000   0.00000   0.00000   3.14159
    D2        0.00000   0.00000   0.00000   0.00000   0.00000   0.00000
    D3        0.00000   0.00000   0.00000   0.00000   0.00000   0.00000
    D4        3.14159   0.00000   0.00000   0.00000   0.00000   3.14159
    D5        0.00000   0.00000   0.00000   0.00000   0.00000   0.00000
    D6        3.14159   0.00000   0.00000   0.00000   0.00000   3.14159
    D7        3.14159   0.00000   0.00000   0.00000   0.00000   3.14159
    D8        0.00000   0.00000   0.00000   0.00000   0.00000   0.00000
    D9        0.00000   0.00000   0.00000   0.00000   0.00000   0.00000
   D10        3.14159   0.00000   0.00000   0.00000   0.00000   3.14159
   D11        3.14159   0.00000   0.00000   0.00000   0.00000   3.14159
   D12        0.00000   0.00000   0.00000   0.00000   0.00000   0.00000
   D13        0.00000   0.00000   0.00000   0.00000   0.00000   0.00000
   D14        3.14159   0.00000   0.00000   0.00000   0.00000   3.14159
   D15        3.14159   0.00000   0.00000   0.00000   0.00000   3.14159
   D16        0.00000   0.00000   0.00000   0.00000   0.00000   0.00000
   D17        0.00000   0.00000   0.00000   0.00000   0.00000   0.00000
   D18        3.14159   0.00000   0.00000   0.00000   0.00000   3.14159
   D19        3.14159   0.00000   0.00000   0.00000   0.00000   3.14159
   D20        0.00000   0.00000   0.00000   0.00000   0.00000   0.00000
         Item               Value     Threshold  Converged?
 Maximum Force            0.000179     0.000450     YES
 RMS     Force            0.000067     0.000300     YES
 Maximum Displacement     0.003815     0.001800     NO 
 RMS     Displacement     0.000936     0.001200     YES
 Predicted change in Energy=-6.895780D-07
 GradGradGradGradGradGradGradGradGradGradGradGradGradGradGradGradGradGrad

                          Input orientation:                          
 ---------------------------------------------------------------------
 Center     Atomic      Atomic             Coordinates (Angstroms)
 Number     Number       Type             X           Y           Z
 ---------------------------------------------------------------------
      1          6           0       -1.754894   -0.559800    0.000000
      2          1           0       -1.275276   -1.543271    0.000000
      3          1           0       -2.846416   -0.537341    0.000000
      4          6           0       -1.027955    0.572458    0.000000
      5          1           0       -1.545119    1.539638    0.000000
      6          6           0        0.422482    0.618067    0.000000
      7          1           0        0.947554   -0.345384    0.000000
      8          6           0        1.150379    1.760471    0.000000
      9          1           0        0.625327    2.723931    0.000000
     10          6           0        2.600823    1.806028    0.000000
     11          1           0        3.117930    0.838816    0.000000
     12          6           0        3.327836    2.938237    0.000000
     13          1           0        2.848304    3.921749    0.000000
     14          1           0        4.419358    2.915689    0.000000
 ---------------------------------------------------------------------
                    Distance matrix (angstroms):
[...]
    D5        0.00000   0.00000   0.00000   0.00000   0.00000   0.00000
    D6        3.14159   0.00000   0.00000   0.00000   0.00000   3.14159
    D7        3.14159   0.00000   0.00000   0.00000   0.00000   3.14159
    D8        0.00000   0.00000   0.00000   0.00000   0.00000   0.00000
    D9        0.00000   0.00000   0.00000   0.00000   0.00000   0.00000
   D10        3.14159   0.00000   0.00000   0.00000   0.00000   3.14159
   D11        3.14159   0.00000   0.00000   0.00000   0.00000   3.14159
   D12        0.00000   0.00000   0.00000   0.00000   0.00000   0.00000
   D13        0.00000   0.00000   0.00000   0.00000   0.00000   0.00000
   D14        3.14159   0.00000   0.00000   0.00000   0.00000   3.14159
   D15        3.14159   0.00000   0.00000   0.00000   0.00000   3.14159
   D16        0.00000   0.00000   0.00000   0.00000   0.00000   0.00000
   D17        0.00000   0.00000   0.00000   0.00000   0.00000   0.00000
   D18        3.14159   0.00000   0.00000   0.00000   0.00000   3.14159
   D19        3.14159   0.00000   0.00000   0.00000   0.00000   3.14159
   D20        0.00000   0.00000   0.00000   0.00000   0.00000   0.00000
         Item               Value     Threshold  Converged?
 Maximum Force            0.000046     0.000450     YES
 RMS     Force            0.000017     0.000300     YES
 Maximum Displacement     0.000701     0.001800     YES
 RMS     Displacement     0.000186     0.001200     YES
 Predicted change in Energy=-3.985623D-08
 Optimization completed.
    -- Stationary point found.
                           ----------------------------
                           !   Optimized Parameters   !
                           ! (Angstroms and Degrees)  !
 --------------------------                            --------------------------
 ! Name  Definition              Value          Derivative Info.                !
 --------------------------------------------------------------------------------
 ! R1    R(1,2)                  1.0942         -DE/DX =    0.0                 !
 ! R2    R(1,3)                  1.0918         -DE/DX =    0.0                 !
 ! R3    R(1,4)                  1.3455         -DE/DX =    0.0                 !
 ! R4    R(4,5)                  1.0968         -DE/DX =    0.0                 !
 ! R5    R(4,6)                  1.4512         -DE/DX =    0.0                 !
 ! R6    R(6,7)                  1.0972         -DE/DX =    0.0                 !
 ! R7    R(6,8)                  1.3546         -DE/DX =    0.0                 !
 ! R8    R(8,9)                  1.0972         -DE/DX =    0.0                 !
 ! R9    R(8,10)                 1.4512         -DE/DX =    0.0                 !
 ! R10   R(10,11)                1.0968         -DE/DX =    0.0                 !
 ! R11   R(10,12)                1.3455         -DE/DX =    0.0                 !
 ! R12   R(12,13)                1.0942         -DE/DX =    0.0                 !
 ! R13   R(12,14)                1.0918         -DE/DX =    0.0                 !
 ! A1    A(2,1,3)              117.1762         -DE/DX =    0.0                 !
 ! A2    A(2,1,4)              121.301          -DE/DX =    0.0                 !
 ! A3    A(3,1,4)              121.5228         -DE/DX =    0.0                 !
 ! A4    A(1,4,5)              119.1645         -DE/DX =    0.0                 !
 ! A5    A(1,4,6)              124.5026         -DE/DX =    0.0                 !
 ! A6    A(5,4,6)              116.333          -DE/DX =    0.0                 !
 ! A7    A(4,6,7)              116.7889         -DE/DX =    0.0                 !
 ! A8    A(4,6,8)              124.3049         -DE/DX =    0.0                 !
 ! A9    A(7,6,8)              118.9063         -DE/DX =    0.0                 !
 ! A10   A(6,8,9)              118.9074         -DE/DX =    0.0                 !
 ! A11   A(6,8,10)             124.3028         -DE/DX =    0.0                 !
 ! A12   A(9,8,10)             116.7898         -DE/DX =    0.0                 !
 ! A13   A(8,10,11)            116.3316         -DE/DX =    0.0                 !
 ! A14   A(8,10,12)            124.5043         -DE/DX =    0.0                 !
 ! A15   A(11,10,12)           119.1641         -DE/DX =    0.0                 !
 ! A16   A(10,12,13)           121.3021         -DE/DX =    0.0                 !
 ! A17   A(10,12,14)           121.5219         -DE/DX =    0.0                 !
 ! A18   A(13,12,14)           117.176          -DE/DX =    0.0                 !
 ! D1    D(2,1,4,5)            180.0            -DE/DX =    0.0                 !
 ! D2    D(2,1,4,6)              0.0            -DE/DX =    0.0                 !
 ! D3    D(3,1,4,5)              0.0            -DE/DX =    0.0                 !
 ! D4    D(3,1,4,6)            180.0            -DE/DX =    0.0                 !
 ! D5    D(1,4,6,7)              0.0            -DE/DX =    0.0                 !
 ! D6    D(1,4,6,8)            180.0            -DE/DX =    0.0                 !
 ! D7    D(5,4,6,7)            180.0            -DE/DX =    0.0                 !
 ! D8    D(5,4,6,8)              0.0            -DE/DX =    0.0                 !
 ! D9    D(4,6,8,9)              0.0            -DE/DX =    0.0                 !
 ! D10   D(4,6,8,10)           180.0            -DE/DX =    0.0                 !
 ! D11   D(7,6,8,9)            180.0            -DE/DX =    0.0                 !
 ! D12   D(7,6,8,10)             0.0            -DE/DX =    0.0                 !
 ! D13   D(6,8,10,11)            0.0            -DE/DX =    0.0                 !
 ! D14   D(6,8,10,12)          180.0            -DE/DX =    0.0                 !
 ! D15   D(9,8,10,11)          180.0            -DE/DX =    0.0                 !
 ! D16   D(9,8,10,12)            0.0            -DE/DX =    0.0                 !
 ! D17   D(8,10,12,13)           0.0            -DE/DX =    0.0                 !
 ! D18   D(8,10,12,14)         180.0            -DE/DX =    0.0                 !
 ! D19   D(11,10,12,13)        180.0            -DE/DX =    0.0                 !
 ! D20   D(11,10,12,14)          0.0            -DE/DX =    0.0                 !
 --------------------------------------------------------------------------------
 GradGradGradGradGradGradGradGradGradGradGradGradGradGradGradGradGradGrad


 ----------------------------------------------------------------------

 Electric dipole moment (input orientation):
 (Debye = 10**-18 statcoulomb cm , SI units = C m)
                  (au)            (Debye)         (10**-30 SI)
   Tot        0.250891D-04      0.637702D-04      0.212715D-03
   x         -0.250891D-04     -0.637702D-04     -0.212715D-03
   y          0.000000D+00      0.000000D+00      0.000000D+00
   z          0.000000D+00      0.000000D+00      0.000000D+00

 Dipole polarizability, Alpha (input orientation).
 (esu units = cm**3 , SI units = C**2 m**2 J**-1)
 Alpha(0;0):
               (au)            (10**-24 esu)      (10**-40 SI)
   iso        0.831135D+02      0.123162D+02      0.137036D+02
   aniso      0.122771D+03      0.181928D+02      0.202422D+02
   xx         0.123160D+03      0.182504D+02      0.203063D+02
   yx         0.501250D+02      0.742776D+01      0.826450D+01
   yy         0.992700D+02      0.147103D+02      0.163674D+02
   zx         0.000000D+00      0.000000D+00      0.000000D+00
   zy         0.000000D+00      0.000000D+00      0.000000D+00
   zz         0.269108D+02      0.398777D+01      0.443699D+01

 ----------------------------------------------------------------------

 Dipole orientation:
     6         -0.07981613          0.20461377          3.47397295
     1          0.66910242         -1.71528694          3.30499151
     1         -0.36659859          0.93979899          5.38019920
     6         -0.62280460          1.59659950          1.41660348
     1         -1.37067086          3.51380260          1.66287394
     6         -0.28999621          0.74342386         -1.16824557
     1          0.45745786         -1.17272255         -1.43099792
     6         -0.83923682          2.15143738         -3.23427011
     1         -1.58669174          4.06758597         -2.97155790
     6         -0.50639329          1.29817166         -5.81909573
     1          0.24147894         -0.61904674         -6.06524426
     6         -1.04933227          2.69003054         -7.87656170
     1         -1.79825526          4.60994262         -7.70775816
     1         -0.76249261          1.95469868         -9.78272575

 Electric dipole moment (dipole orientation):
 (Debye = 10**-18 statcoulomb cm , SI units = C m)
                  (au)            (Debye)         (10**-30 SI)
   Tot        0.269304D-04      0.684503D-04      0.228325D-03
   x          0.000000D+00      0.000000D+00      0.000000D+00
   y          0.000000D+00      0.000000D+00      0.000000D+00
   z          0.269304D-04      0.684503D-04      0.228325D-03

 Dipole polarizability, Alpha (dipole orientation).
 (esu units = cm**3 , SI units = C**2 m**2 J**-1)
 Alpha(0;0):
               (au)            (10**-24 esu)      (10**-40 SI)
   iso        0.831135D+02      0.123162D+02      0.137036D+02
   aniso      0.122771D+03      0.181928D+02      0.202422D+02
   xx         0.324013D+02      0.480137D+01      0.534225D+01
   yx        -0.140752D+02     -0.208573D+01     -0.232069D+01
   yy         0.629935D+02      0.933467D+01      0.103862D+02
   zx         0.104652D+02      0.155078D+01      0.172547D+01
   zy        -0.268281D+02     -0.397551D+01     -0.442335D+01
   zz         0.153946D+03      0.228124D+02      0.253822D+02

 ----------------------------------------------------------------------
 1\1\GINC-LSQC03\Freq\RB3LYP\CC-pVDZ\C6H8\QINGCHUN\20-Jun-2020\0\\#N Ge
 om=AllCheck Guess=TCheck SCRF=Check GenChk RB3LYP/CC-pVDZ Freq\\cc-pVD
 Z\\0,1\C,-1.7548940319,-0.5597996437,0.\H,-1.2752761156,-1.5432706791,
 0.\H,-2.8464160001,-0.5373410206,0.\C,-1.0279548213,0.5724583415,0.\H,
 -1.545119122,1.5396384827,0.\C,0.4224818115,0.6180672131,0.\H,0.947553
 5076,-0.3453841389,0.\C,1.1503794481,1.7604711852,0.\H,0.6253270942,2.
 7239314061,0.\C,2.6008231265,1.8060278792,0.\H,3.1179304775,0.83881619
 24,0.\C,3.3278361002,2.9382372922,0.\H,2.8483035365,3.9217485575,0.\H,
 4.4193576688,2.9156891124,0.\\Version=ES64L-G16RevA.03\State=1-A'\HF=-
 233.4120559\RMSD=2.408e-09\RMSF=3.254e-05\ZeroPoint=0.1182362\Thermal=
 0.1249582\Dipole=-0.0000251,-0.0000098,0.\DipoleDeriv=-0.161627,-0.224
 5702,0.,-0.1242484,0.0042783,0.,0.,0.,-0.2704668,0.0003799,0.089522,0.
 ,0.0414278,-0.0503266,0.,0.,0.,0.1253911,-0.0865541,-0.0158841,0.,0.01
 27575,0.0367404,0.,0.,0.,0.1228,0.2759711,0.1341296,0.,-0.092574,0.039
 7464,0.,0.,0.,-0.0943201,-0.0143803,0.0185964,0.,0.0944573,-0.0739106,
 0.,0.,0.,0.1087734,0.0165296,-0.0509047,0.,-0.0115193,0.105723,0.,0.,0
 .,-0.1027836,-0.0303214,0.049122,0.,0.0797078,-0.062243,0.,0.,0.,0.110
 6082,0.0165131,-0.0509278,0.,-0.0115503,0.1057117,0.,0.,0.,-0.1027853,
 -0.030319,0.0491207,0.,0.0797066,-0.0622405,0.,0.,0.,0.1106119,0.27598
 73,0.1341447,0.,-0.0925659,0.0397439,0.,0.,0.,-0.0943211,-0.0143733,0.
 018589,0.,0.0944539,-0.0739202,0.,0.,0.,0.1087707,-0.1616397,-0.224574
 7,0.,-0.1242448,0.0042984,0.,0.,0.,-0.2704706,0.0003916,0.0895146,0.,0
 .0414244,-0.0503366,0.,0.,0.,0.1253929,-0.0865579,-0.0158776,0.,0.0127
 674,0.0367354,0.,0.,0.,0.1227992\Polar=123.1597627,50.1250174,99.26999
 95,0.,0.,26.9107921\Quadrupole=1.7043151,1.8293422,-3.5336573,-0.21101
 08,0.,0.\PG=CS [SG(C6H8)]\NImag=0\\0.70452716,0.08728905,0.76403333,0.
 ,0.,0.10232229,-0.11322929,0.11489319,0.,0.11017594,0.11055809,-0.2774
 8096,0.,-0.11992733,0.29717376,0.,0.,-0.03346920,0.,0.,0.02184578,-0.3
 4259896,0.00849629,0.,-0.00770793,-0.00310229,0.,0.36107616,0.01412365
 ,-0.05523781,0.,0.02435683,0.00180120,0.,-0.00715666,0.05198652,0.,0.,
 -0.03166280,0.,0.,0.00239698,0.,0.,0.02140986,-0.22268280,-0.17699639,
 0.,0.01050461,0.01492315,0.,-0.01248679,-0.02861953,0.,0.64825383,-0.1
 9088854,-0.41394485,0.,-0.01536534,-0.02097074,0.,0.00484196,0.0039145
 8,0.,0.08229140,0.79714055,0.,0.,-0.05022124,0.,0.,0.00503359,0.,0.,0.
 00418056,0.,0.,0.13360958,0.00997145,-0.01683868,0.,-0.00093250,-0.003
 32013,0.,0.00107653,-0.00002119,0.,-0.11672048,0.11363825,0.,0.1227338
 9,0.01486585,-0.02161453,0.,-0.00299592,-0.00274643,0.,-0.00023940,0.0
 0123201,0.,0.11206875,-0.26296019,0.,-0.12061201,0.28326870,0.,0.,0.00
 561918,0.,0.,0.01083947,0.,0.,-0.00694429,0.,0.,-0.04169114,0.,0.,0.02
 699030,-0.03510385,-0.02534158,0.,0.00122249,0.00248499,0.,0.00102115,
 -0.00082643,0.,-0.26461789,0.02168145,0.,-0.01277018,-0.00173691,0.,0.
 65432369,-0.04078462,-0.00576471,0.,-0.00167372,0.00147344,0.,-0.00294
 916,-0.00427270,0.,0.02001467,-0.09486017,0.,0.02810159,0.00047129,0.,
 0.07109778,0.77431982,0.,0.,0.00632881,0.,0.,-0.00754009,0.,0.,0.01197
 245,0.,0.,-0.06317323,0.,0.,0.00315261,0.,0.,0.13204730,0.00149772,0.0
 0128291,0.,0.00008095,-0.00131607,0.,0.00031202,-0.00042610,0.,-0.0122
 2543,0.02795409,0.,-0.00506107,-0.00054883,0.,-0.11752582,0.11330053,0
 .,0.12344098,-0.00097542,0.00125092,0.,0.00055693,0.00025693,0.,0.0000
 9465,0.00016627,0.,-0.00197532,0.00071954,0.,-0.00069601,0.00072541,0.
 ,0.11162334,-0.26073848,0.,-0.12155731,0.28057245,0.,0.,-0.00137254,0.
 ,0.,0.00024547,0.,0.,-0.00027254,0.,0.,0.00306892,0.,0.,0.00341649,0.,
 0.,-0.03984698,0.,0.,0.02550836,0.00055520,0.01012527,0.,0.00009149,-0
 .00044027,0.,-0.00067228,-0.00128697,0.,-0.03968346,-0.04283904,0.,0.0
 0153935,-0.00126168,0.,-0.19817018,-0.15840423,0.,0.00979310,0.0151236
 7,0.,0.65430698,0.00829000,0.00766843,0.,-0.00012213,0.00025976,0.,0.0
 0034921,0.00084447,0.,-0.02441408,-0.00562579,0.,0.00188098,0.00092796
 ,0.,-0.15840333,-0.39264635,0.,-0.01468627,-0.02205797,0.,0.07108889,0
 .77432785,0.,0.,0.00255323,0.,0.,-0.00000876,0.,0.,0.00012936,0.,0.,0.
 00457066,0.,0.,-0.00146382,0.,0.,-0.05417295,0.,0.,0.00545158,0.,0.,0.
 13204683,0.00009103,-0.00002845,0.,-0.00015752,0.00014088,0.,-0.000008
 30,0.00009304,0.,0.00103965,-0.00189979,0.,-0.00002717,0.00051347,0.,0
 .00979358,-0.01468674,0.,-0.00124991,-0.00282137,0.,-0.11752261,0.1132
 9943,0.,0.12343525,-0.00046639,0.00034935,0.,0.00015009,0.00022840,0.,
 -0.00007976,-0.00001922,0.,0.00240022,0.00111898,0.,-0.00137756,0.0004
 1570,0.,0.01512363,-0.02205690,0.,-0.00282128,-0.00298828,0.,0.1116220
 8,-0.26074618,0.,-0.12155660,0.28057930,0.,0.,0.00008326,0.,0.,0.00036
 493,0.,0.,0.00015452,0.,0.,-0.00634973,0.,0.,0.00020653,0.,0.,0.005451
 51,0.,0.,0.00934190,0.,0.,-0.03984631,0.,0.,0.02550778,-0.00265374,-0.
 00440185,0.,-0.00006738,0.00006330,0.,0.00012709,-0.00006423,0.,0.0111
 8718,0.00480152,0.,0.00002570,-0.00009114,0.,-0.03968685,-0.02441547,0
 .,0.00103934,0.00240055,0.,-0.26460660,0.02002001,0.,-0.01222365,-0.00
 197527,0.,0.64825760,-0.00353835,-0.00106874,0.,0.00007137,0.00002267,
 0.,-0.00023955,-0.00045875,0.,0.00480077,-0.00353621,0.,-0.00050908,0.
 00050896,0.,-0.04283859,-0.00562510,0.,-0.00190052,0.00111873,0.,0.021
 68870,-0.09486208,0.,0.02795417,0.00071949,0.,0.08231076,0.79712941,0.
 ,0.,-0.00007803,0.,0.,0.00034484,0.,0.,-0.00156998,0.,0.,0.01248358,0.
 ,0.,-0.00020835,0.,0.,0.00457058,0.,0.,-0.00634995,0.,0.,-0.06317367,0
 .,0.,0.00306873,0.,0.,0.13361042,-0.00008612,-0.00006837,0.,-0.0000387
 6,-0.00004928,0.,0.00000802,-0.00000701,0.,0.00002578,-0.00050912,0.,0
 .00028133,-0.00012148,0.,0.00153905,0.00188138,0.,-0.00002712,-0.00137
 763,0.,-0.01277002,0.02810222,0.,-0.00506114,-0.00069590,0.,-0.1167062
 0,0.11362860,0.,0.12272048,0.00014174,-0.00007591,0.,0.00000327,-0.000
 00233,0.,0.00001431,0.00002146,0.,-0.00009119,0.00050903,0.,-0.0001214
 9,-0.00017205,0.,-0.00126226,0.00092795,0.,0.00051341,0.00041585,0.,-0
 .00173604,0.00046935,0.,-0.00054849,0.00072544,0.,0.11205961,-0.262971
 39,0.,-0.12060109,0.28328135,0.,0.,-0.00002164,0.,0.,0.00000820,0.,0.,
 0.00001803,0.,0.,-0.00020832,0.,0.,0.00007844,0.,0.,-0.00146385,0.,0.,
 0.00020653,0.,0.,0.00315274,0.,0.,0.00341645,0.,0.,-0.04169130,0.,0.,0
 .02699057,-0.00021097,0.00154069,0.,0.00005145,-0.00001653,0.,-0.00012
 825,-0.00013912,0.,-0.00265391,-0.00353861,0.,-0.00008610,0.00014171,0
 .,0.00055578,0.00829082,0.,0.00009104,-0.00046644,0.,-0.03510487,-0.04
 078237,0.,0.00149794,-0.00097492,0.,-0.22270809,-0.19090342,0.,0.00997
 100,0.01486365,0.,0.70452875,0.00154058,0.00184581,0.,0.00004248,-0.00
 002199,0.,0.00000546,0.00006169,0.,-0.00440153,-0.00106869,0.,-0.00006
 839,-0.00007592,0.,0.01012499,0.00766781,0.,-0.00002848,0.00034947,0.,
 -0.02533828,-0.00576076,0.,0.00128255,0.00125086,0.,-0.17700980,-0.413
 92299,0.,-0.01684077,-0.02161481,0.,0.08729159,0.76403184,0.,0.,-0.000
 07650,0.,0.,0.00001660,0.,0.,-0.00002141,0.,0.,-0.00007805,0.,0.,-0.00
 002164,0.,0.,0.00255322,0.,0.,0.00008327,0.,0.,0.00632865,0.,0.,-0.001
 37247,0.,0.,-0.05022076,0.,0.,0.00561907,0.,0.,0.10232174,0.00005145,0
 .00004248,0.,0.00000033,0.00000606,0.,0.00000610,0.00000422,0.,-0.0000
 6738,0.00007137,0.,-0.00003876,0.00000327,0.,0.00009144,-0.00012211,0.
 ,-0.00015751,0.00015012,0.,0.00122274,-0.00167313,0.,0.00008088,0.0005
 5697,0.,0.01050492,-0.01536764,0.,-0.00093288,-0.00299607,0.,-0.113210
 28,0.11487984,0.,0.11015532,-0.00001653,-0.00002200,0.,0.00000606,0.00
 001008,0.,-0.00000456,-0.00000378,0.,0.00006330,0.00002270,0.,-0.00004
 928,-0.00000234,0.,-0.00044023,0.00025968,0.,0.00014088,0.00022840,0.,
 0.00248473,0.00147356,0.,-0.00131600,0.00025684,0.,0.01492086,-0.02096
 975,0.,-0.00332020,-0.00274593,0.,0.11054548,-0.27750271,0.,-0.1199130
 9,0.29719585,0.,0.,0.00001661,0.,0.,0.00000763,0.,0.,-0.00008543,0.,0.
 ,0.00034482,0.,0.,0.00000819,0.,0.,-0.00000879,0.,0.,0.00036493,0.,0.,
 -0.00753991,0.,0.,0.00024546,0.,0.,0.00503337,0.,0.,0.01083955,0.,0.,-
 0.03346878,0.,0.,0.02184533,-0.00012827,0.00000546,0.,0.00000610,-0.00
 000456,0.,-0.00002456,-0.00003050,0.,0.00012709,-0.00023960,0.,0.00000
 801,0.00001431,0.,-0.00067241,0.00034928,0.,-0.00000829,-0.00007976,0.
 ,0.00102116,-0.00294945,0.,0.00031196,0.00009469,0.,-0.01248931,0.0048
 4279,0.,0.00107660,-0.00023937,0.,-0.34259350,0.00851978,0.,-0.0077063
 6,-0.00310142,0.,0.36107178,-0.00013911,0.00006168,0.,0.00000423,-0.00
 000378,0.,-0.00003049,-0.00003592,0.,-0.00006423,-0.00045873,0.,-0.000
 00701,0.00002145,0.,-0.00128685,0.00084443,0.,0.00009304,-0.00001923,0
 .,-0.00082682,-0.00427226,0.,-0.00042610,0.00016623,0.,-0.02861886,0.0
 0391577,0.,-0.00002135,0.00123198,0.,0.01414747,-0.05523961,0.,0.02435
 773,0.00179940,0.,-0.00718166,0.05198860,0.,0.,-0.00002142,0.,0.,-0.00
 008543,0.,0.,0.00029471,0.,0.,-0.00156999,0.,0.,0.00001803,0.,0.,0.000
 12941,0.,0.,0.00015456,0.,0.,0.01197237,0.,0.,-0.00027256,0.,0.,0.0041
 8052,0.,0.,-0.00694446,0.,0.,-0.03166293,0.,0.,0.00239701,0.,0.,0.0214
 1020\\-0.00005758,-0.00000010,0.,0.00002907,-0.00000042,0.,0.00001954,
 0.00000747,0.,0.00000492,-0.00005078,0.,-0.00000946,0.00002860,0.,-0.0
 0003750,0.00010444,0.,0.00002631,-0.00003772,0.,0.00003388,-0.00010396
 ,0.,-0.00002586,0.00003720,0.,-0.00000171,0.00005197,0.,0.00000902,-0.
 00002931,0.,0.00005580,0.00000039,0.,-0.00002761,0.00000031,0.,-0.0000
 1882,-0.00000809,0.\\\@


 CHARLIE BROWN.."I CAN'T GET THAT STUPID KITE IN THE
 AIR... I CAN'T... I C A N N O T..."
 LUCY.."OH COME NOW CHARLIE BROWN...THAT'S NO WAY TO TALK...
 THE TROUBLE WITH YOU IS YOU DON'T BELIEVE IN YOURSELF... YOU
 DON'T BELIEVE IN YOUR OWN ABILITIES...  YOU'VE GOT TO SAY TO
 YOURSELF...'I BELIEVE I CAN FLY THIS KITE.'... GO AHEAD SAY
 IT...."
 CHARLIE BROWN.."I BELIEVE THAT I CAN FLY THIS STUPID
 KITE.....I BELIEVE THAT I CAN FLY THIS KITE........
 I  A C T U A L L Y  B E L I E V E  T H A T  I  C A N ******"
 LUCY.."I'LL BET YOU TEN-TO-ONE YOU'RE WRONG......."    SCHULZ
 Job cpu time:       0 days  0 hours  3 minutes 53.4 seconds.
 Elapsed time:       0 days  0 hours  0 minutes 59.1 seconds.
 File lengths (MBytes):  RWF=     28 Int=      0 D2E=      0 Chk=      3 Scr=      1
 Normal termination of Gaussian 16 at Sat Jun 20 08:45:08 2020.
