Title section
Stability RHF                                                         CC-pVDZ
Number of atoms                            I                2
Info1-9                                    I   N=           9
          13          12           0           0           0         110
           7           1           2
Full Title                                 C   N=           2
Title section
Route                                      C   N=          11
#p int=(nobasistransform) nosymm pop=full punch=gamessinput
gfprint uhf/cc-pvdz 6D 10F guess=mix SCF=(xqc, maxcycle=500)
 stable=opt
Charge                                     I                0
Multiplicity                               I                1
Number of electrons                        I               14
Number of alpha electrons                  I                7
Number of beta electrons                   I                7
Number of basis functions                  I               30
Number of independent functions            I               30
Number of point charges in /Mol/           I                0
Number of translation vectors              I                0
Atomic numbers                             I   N=           2
           7           7
Nuclear charges                            R   N=           2
  7.00000000E+00  7.00000000E+00
Current cartesian coordinates              R   N=           6
  0.00000000E+00  0.00000000E+00  0.00000000E+00  0.00000000E+00  0.00000000E+00
  2.99994022E+00
Number of symbols in /Mol/                 I                0
Force Field                                I                0
Atom Types                                 C   N=           2

Int Atom Types                             I   N=           2
           0           0
MM charges                                 R   N=           2
  0.00000000E+00  0.00000000E+00
Integer atomic weights                     I   N=           2
          14          14
Real atomic weights                        R   N=           2
  1.40030740E+01  1.40030740E+01
Atom fragment info                         I   N=           2
           0           0
Atom residue num                           I   N=           2
           0           0
Nuclear spins                              I   N=           2
           2           2
Nuclear ZEff                               R   N=           2
 -4.55000000E+00 -4.55000000E+00
Nuclear ZNuc                               R   N=           2
  7.00000000E+00  7.00000000E+00
Nuclear QMom                               R   N=           2
  2.04400000E+00  2.04400000E+00
Nuclear GFac                               R   N=           2
  4.03761000E-01  4.03761000E-01
MicOpt                                     I   N=           2
          -1          -1
Number of residues                         I                0
Number of secondary structures             I                0
Number of contracted shells                I               12
Number of primitive shells                 I               44
Pure/Cartesian d shells                    I                1
Pure/Cartesian f shells                    I                1
Highest angular momentum                   I                2
Largest degree of contraction              I                8
Shell types                                I   N=          12
           0           0           0           1           1           2
           0           0           0           1           1           2
Number of primitives per shell             I   N=          12
           8           8           1           3           1           1
           8           8           1           3           1           1
Shell to atom map                          I   N=          12
           1           1           1           1           1           1
           2           2           2           2           2           2
Primitive exponents                        R   N=          44
  9.04600000E+03  1.35700000E+03  3.09300000E+02  8.77300000E+01  2.85600000E+01
  1.02100000E+01  3.83800000E+00  7.46600000E-01  9.04600000E+03  1.35700000E+03
  3.09300000E+02  8.77300000E+01  2.85600000E+01  1.02100000E+01  3.83800000E+00
  7.46600000E-01  2.24800000E-01  1.35500000E+01  2.91700000E+00  7.97300000E-01
  2.18500000E-01  8.17000000E-01  9.04600000E+03  1.35700000E+03  3.09300000E+02
  8.77300000E+01  2.85600000E+01  1.02100000E+01  3.83800000E+00  7.46600000E-01
  9.04600000E+03  1.35700000E+03  3.09300000E+02  8.77300000E+01  2.85600000E+01
  1.02100000E+01  3.83800000E+00  7.46600000E-01  2.24800000E-01  1.35500000E+01
  2.91700000E+00  7.97300000E-01  2.18500000E-01  8.17000000E-01
Contraction coefficients                   R   N=          44
  6.99617413E-04  5.38605463E-03  2.73910212E-02  1.03150592E-01  2.78570663E-01
  4.48294849E-01  2.78085928E-01  1.54315612E-02 -3.04990096E-04 -2.40802638E-03
 -1.19444487E-02 -4.89259929E-02 -1.34472725E-01 -3.15112578E-01 -2.42857833E-01
  1.09438221E+00  1.00000000E+00  5.89056768E-02  3.20461107E-01  7.53042062E-01
  1.00000000E+00  1.00000000E+00  6.99617413E-04  5.38605463E-03  2.73910212E-02
  1.03150592E-01  2.78570663E-01  4.48294849E-01  2.78085928E-01  1.54315612E-02
 -3.04990096E-04 -2.40802638E-03 -1.19444487E-02 -4.89259929E-02 -1.34472725E-01
 -3.15112578E-01 -2.42857833E-01  1.09438221E+00  1.00000000E+00  5.89056768E-02
  3.20461107E-01  7.53042062E-01  1.00000000E+00  1.00000000E+00
Coordinates of each shell                  R   N=          36
  0.00000000E+00  0.00000000E+00  0.00000000E+00  0.00000000E+00  0.00000000E+00
  0.00000000E+00  0.00000000E+00  0.00000000E+00  0.00000000E+00  0.00000000E+00
  0.00000000E+00  0.00000000E+00  0.00000000E+00  0.00000000E+00  0.00000000E+00
  0.00000000E+00  0.00000000E+00  0.00000000E+00  0.00000000E+00  0.00000000E+00
  2.99994022E+00  0.00000000E+00  0.00000000E+00  2.99994022E+00  0.00000000E+00
  0.00000000E+00  2.99994022E+00  0.00000000E+00  0.00000000E+00  2.99994022E+00
  0.00000000E+00  0.00000000E+00  2.99994022E+00  0.00000000E+00  0.00000000E+00
  2.99994022E+00
Num ILSW                                   I              100
ILSW                                       I   N=         100
           0           1           0           0           2           1
           0           0           0           0           0          -1
           5           0           0           1           0           0
           0           0           0           0           0           0
           1           1           0           0           0           0
           0           0      100000           0          -1           0
           0           0           0           0           0           0
           0           0           0           1           0           0
           0 -2000000000           1           0           0           0
           0           0           4          52           0           0
           0           0           0           0           0           0
           0           0           0           2           0           1
           0           0           0           0           0           0
           0           0           0           0           0           0
           0           0           0           0           0           0
           0           0           0           0           0           0
           0           0           0           0
Num RLSW                                   I               52
RLSW                                       R   N=          52
  1.00000000E+00  1.00000000E+00  1.00000000E+00  1.00000000E+00  1.00000000E+00
  0.00000000E+00  0.00000000E+00  1.00000000E+00  0.00000000E+00  0.00000000E+00
  0.00000000E+00  0.00000000E+00  1.00000000E+00  0.00000000E+00  0.00000000E+00
  0.00000000E+00  0.00000000E+00  1.00000000E+00  0.00000000E+00  0.00000000E+00
  0.00000000E+00  0.00000000E+00  1.00000000E+00  0.00000000E+00  0.00000000E+00
  0.00000000E+00  0.00000000E+00  1.00000000E+00  0.00000000E+00  0.00000000E+00
  0.00000000E+00  0.00000000E+00  1.00000000E+00  0.00000000E+00  0.00000000E+00
  0.00000000E+00  0.00000000E+00  0.00000000E+00  1.00000000E+00  1.00000000E+00
  0.00000000E+00  1.00000000E+00  0.00000000E+00  0.00000000E+00  0.00000000E+00
  0.00000000E+00  0.00000000E+00  0.00000000E+00  0.00000000E+00  0.00000000E+00
  0.00000000E+00  0.00000000E+00
MxBond                                     I                1
NBond                                      I   N=           2
           1           1
IBond                                      I   N=           2
           2           1
RBond                                      R   N=           2
  1.00000000E+00  1.00000000E+00
Virial Ratio                               R      2.005664492428955E+00
SCF Energy                                 R     -1.087237440916863E+02
Total Energy                               R     -1.087237440916863E+02
S**2                                       R      1.635218624916890E+00
S**2 after annihilation                    R      3.239254282636040E+00
RMS Density                                R      9.187956735986187E-10
Job Status                                 I                1
Nuclear derivative order                   I                0
External E-field                           R   N=          35
  0.00000000E+00  0.00000000E+00  0.00000000E+00  0.00000000E+00  0.00000000E+00
  0.00000000E+00  0.00000000E+00  0.00000000E+00  0.00000000E+00  0.00000000E+00
  0.00000000E+00  0.00000000E+00  0.00000000E+00  0.00000000E+00  0.00000000E+00
  0.00000000E+00  0.00000000E+00  0.00000000E+00  0.00000000E+00  0.00000000E+00
  0.00000000E+00  0.00000000E+00  0.00000000E+00  0.00000000E+00  0.00000000E+00
  0.00000000E+00  0.00000000E+00  0.00000000E+00  0.00000000E+00  0.00000000E+00
  0.00000000E+00  0.00000000E+00  0.00000000E+00  0.00000000E+00  0.00000000E+00
IOpCl                                      I                0
IROHF                                      I                0
Alpha Orbital Energies                     R   N=          30
 -1.57065184E+01 -1.57060707E+01 -1.16629087E+00 -8.78249880E-01 -5.51160896E-01
 -5.51160891E-01 -5.16126912E-01  1.04296974E-01  1.04296979E-01  2.62427940E-01
  8.65249040E-01  8.89738550E-01  9.02228458E-01  9.02228459E-01  1.03018340E+00
  1.05805000E+00  1.05805000E+00  1.29916427E+00  1.74479005E+00  1.74479005E+00
  1.94324833E+00  1.94696907E+00  2.02513351E+00  2.09082469E+00  2.12978340E+00
  2.47380202E+00  2.47380202E+00  3.04118404E+00  3.70860608E+00  4.08002673E+00
Alpha MO coefficients                      R   N=         900
  7.08137742E-01  7.21909255E-04 -2.69553909E-04  0.00000000E+00  0.00000000E+00
  3.71093642E-04  0.00000000E+00  0.00000000E+00 -6.94190606E-04 -9.95299375E-04
 -9.95296059E-04 -1.10265123E-03  3.66480415E-09  0.00000000E+00  0.00000000E+00
  7.06985846E-01  7.20871924E-04 -2.66745063E-04  0.00000000E+00  0.00000000E+00
 -3.69983044E-04  0.00000000E+00  0.00000000E+00  6.92656486E-04 -9.93860235E-04
 -9.93862006E-04 -1.10143827E-03  8.47087321E-11  0.00000000E+00  0.00000000E+00
 -7.07054919E-01 -6.60739656E-04  1.77288064E-03  0.00000000E+00  0.00000000E+00
 -6.91205036E-04  0.00000000E+00  0.00000000E+00  9.61720920E-04  8.89152944E-04
  8.89148292E-04  7.35536732E-04 -1.01857638E-08  0.00000000E+00  0.00000000E+00
  7.08206749E-01  6.61944678E-04 -1.77345990E-03  0.00000000E+00  0.00000000E+00
 -6.91958727E-04  0.00000000E+00  0.00000000E+00  9.62864110E-04 -8.90709387E-04
 -8.90702480E-04 -7.37273480E-04  3.73125058E-09  0.00000000E+00  0.00000000E+00
 -6.47051229E-04  3.43818203E-01  3.67779983E-01  0.00000000E+00  0.00000000E+00
 -5.73587702E-02  0.00000000E+00  0.00000000E+00 -5.87015431E-02 -2.99616823E-03
 -2.99602540E-03  9.06306580E-03 -7.28699726E-10  0.00000000E+00  0.00000000E+00
 -6.46954298E-04  3.43812074E-01  3.67770650E-01  0.00000000E+00  0.00000000E+00
  5.73569944E-02  0.00000000E+00  0.00000000E+00  5.87028759E-02 -2.99634492E-03
 -2.99641364E-03  9.06306793E-03  2.12570201E-08  0.00000000E+00  0.00000000E+00
 -5.66039802E-03 -3.68620907E-01 -4.45061500E-01  0.00000000E+00  0.00000000E+00
  1.04051325E-01  0.00000000E+00  0.00000000E+00  4.75025056E-02 -1.19569789E-03
 -1.19554815E-03  9.14734692E-03  4.66536428E-10  0.00000000E+00  0.00000000E+00
  5.66162579E-03  3.68629210E-01  4.45066185E-01  0.00000000E+00  0.00000000E+00
  1.04058825E-01  0.00000000E+00  0.00000000E+00  4.75090298E-02  1.19610186E-03
  1.19615188E-03 -9.14691654E-03  6.76430118E-09  0.00000000E+00  0.00000000E+00
  4.63150558E-03  3.02060781E-02 -1.00926897E-01  0.00000000E+00  0.00000000E+00
  4.55906155E-01  0.00000000E+00  0.00000000E+00  2.67946391E-01 -6.75144537E-03
 -6.75121636E-03  4.46050453E-02 -3.65658491E-08  0.00000000E+00  0.00000000E+00
  4.63129936E-03  3.02122646E-02 -1.00917335E-01  0.00000000E+00  0.00000000E+00
 -4.55904574E-01  0.00000000E+00  0.00000000E+00 -2.67946352E-01 -6.75175877E-03
 -6.75225648E-03  4.46042520E-02 -2.75264219E-07  0.00000000E+00  0.00000000E+00
  0.00000000E+00  0.00000000E+00  0.00000000E+00  3.66144794E-02  4.32926566E-01
  0.00000000E+00  2.62695538E-02  3.10609400E-01  0.00000000E+00  0.00000000E+00
  0.00000000E+00  0.00000000E+00  0.00000000E+00  1.92121908E-03  2.27216996E-02
  0.00000000E+00  0.00000000E+00  0.00000000E+00  3.66118638E-02  4.32926547E-01
  0.00000000E+00  2.62692995E-02  3.10607664E-01  0.00000000E+00  0.00000000E+00
  0.00000000E+00  0.00000000E+00  0.00000000E+00 -1.92193577E-03 -2.27212554E-02
  0.00000000E+00  0.00000000E+00  0.00000000E+00  4.32925064E-01 -3.66154217E-02
  0.00000000E+00  3.10608623E-01 -2.62715878E-02  0.00000000E+00  0.00000000E+00
  0.00000000E+00  0.00000000E+00  0.00000000E+00  2.27219055E-02 -1.92167164E-03
  0.00000000E+00  0.00000000E+00  0.00000000E+00  4.32925072E-01 -3.66102328E-02
  0.00000000E+00  3.10611019E-01 -2.62678014E-02  0.00000000E+00  0.00000000E+00
  0.00000000E+00  0.00000000E+00  0.00000000E+00 -2.27219196E-02  1.92213021E-03
  0.00000000E+00  0.00000000E+00  0.00000000E+00 -5.34666645E-01  4.52199782E-02
  0.00000000E+00 -3.32179382E-01  2.80962619E-02  0.00000000E+00  0.00000000E+00
  0.00000000E+00  0.00000000E+00  0.00000000E+00 -4.61958287E-03  3.91360710E-04
  0.00000000E+00  0.00000000E+00  0.00000000E+00  5.34666669E-01 -4.52188980E-02
  0.00000000E+00  3.32178873E-01 -2.80944784E-02  0.00000000E+00  0.00000000E+00
  0.00000000E+00  0.00000000E+00  0.00000000E+00 -4.61855169E-03  3.92086586E-04
  0.00000000E+00  0.00000000E+00  0.00000000E+00 -4.52228266E-02 -5.34667449E-01
  0.00000000E+00 -2.80958300E-02 -3.32176846E-01  0.00000000E+00  0.00000000E+00
  0.00000000E+00  0.00000000E+00  0.00000000E+00 -3.90992857E-04 -4.61718636E-03
  0.00000000E+00  0.00000000E+00  0.00000000E+00  4.52152697E-02  5.34667475E-01
  0.00000000E+00  2.80956393E-02  3.32178502E-01  0.00000000E+00  0.00000000E+00
  0.00000000E+00  0.00000000E+00  0.00000000E+00 -3.89711705E-04 -4.61855875E-03
  2.10826679E-02  1.86197383E-01  2.75445809E-01  0.00000000E+00  0.00000000E+00
  6.66186878E-01  0.00000000E+00  0.00000000E+00  2.91120306E-01 -1.08053992E-02
 -1.08048691E-02  7.79598753E-03  5.11227419E-07  0.00000000E+00  0.00000000E+00
 -2.10859624E-02 -1.86209118E-01 -2.75444644E-01  0.00000000E+00  0.00000000E+00
  6.66181367E-01  0.00000000E+00  0.00000000E+00  2.91126502E-01  1.08103156E-02
  1.08097599E-02 -7.79106983E-03 -8.82566597E-07  0.00000000E+00  0.00000000E+00
  7.58590147E-02  2.54245636E-01  4.35759541E-01  0.00000000E+00  0.00000000E+00
 -4.68730483E-01  0.00000000E+00  0.00000000E+00  1.35510259E+00  4.33755970E-02
  4.33755045E-02  1.15807893E-01 -6.68020724E-08  0.00000000E+00  0.00000000E+00
 -7.58461912E-02 -2.54217778E-01 -4.35800467E-01  0.00000000E+00  0.00000000E+00
 -4.68719621E-01  0.00000000E+00  0.00000000E+00  1.35508997E+00 -4.33695997E-02
 -4.33695543E-02 -1.15801252E-01  1.45260167E-07  0.00000000E+00  0.00000000E+00
 -3.99008378E-01 -8.59020776E-01  1.23137482E+00  0.00000000E+00  0.00000000E+00
  1.60230597E-01  0.00000000E+00  0.00000000E+00 -1.88726382E-01 -1.83441219E-01
 -1.83441250E-01 -2.67184997E-01 -2.72007747E-08  0.00000000E+00  0.00000000E+00
 -3.99011712E-01 -8.59029048E-01  1.23136773E+00  0.00000000E+00  0.00000000E+00
 -1.60250643E-01  0.00000000E+00  0.00000000E+00  1.88768514E-01 -1.83442913E-01
 -1.83442999E-01 -2.67189699E-01  1.70826131E-09  0.00000000E+00  0.00000000E+00
  0.00000000E+00  0.00000000E+00  0.00000000E+00  1.05919340E-01  6.97799469E-01
  0.00000000E+00 -9.63234852E-02 -6.34571258E-01  0.00000000E+00  0.00000000E+00
  0.00000000E+00  0.00000000E+00  0.00000000E+00  2.29070570E-03  1.50912885E-02
  0.00000000E+00  0.00000000E+00  0.00000000E+00  1.05916884E-01  6.97795881E-01
  0.00000000E+00 -9.63186377E-02 -6.34563294E-01  0.00000000E+00  0.00000000E+00
  0.00000000E+00  0.00000000E+00  0.00000000E+00 -2.29062724E-03 -1.50910667E-02
  0.00000000E+00  0.00000000E+00  0.00000000E+00  6.97800686E-01 -1.05916524E-01
  0.00000000E+00 -6.34569688E-01  9.63158491E-02  0.00000000E+00  0.00000000E+00
  0.00000000E+00  0.00000000E+00  0.00000000E+00  1.50913947E-02 -2.29056810E-03
  0.00000000E+00  0.00000000E+00  0.00000000E+00  6.97796494E-01 -1.05919985E-01
  0.00000000E+00 -6.34563568E-01  9.63260796E-02  0.00000000E+00  0.00000000E+00
  0.00000000E+00  0.00000000E+00  0.00000000E+00 -1.50912592E-02  2.29090780E-03
  0.00000000E+00  0.00000000E+00  0.00000000E+00 -1.20808368E-01  6.31664520E-01
  0.00000000E+00  1.85935972E-01 -9.72210614E-01  0.00000000E+00  0.00000000E+00
  0.00000000E+00  0.00000000E+00  0.00000000E+00 -5.48078215E-03  2.86573802E-02
  0.00000000E+00  0.00000000E+00  0.00000000E+00  1.20802346E-01 -6.31667594E-01
  0.00000000E+00 -1.85930573E-01  9.72214329E-01  0.00000000E+00  0.00000000E+00
  0.00000000E+00  0.00000000E+00  0.00000000E+00 -5.48069918E-03  2.86576741E-02
  0.00000000E+00  0.00000000E+00  0.00000000E+00  6.31663277E-01  1.20803906E-01
  0.00000000E+00 -9.72209557E-01 -1.85931762E-01  0.00000000E+00  0.00000000E+00
  0.00000000E+00  0.00000000E+00  0.00000000E+00  2.86576954E-02  5.48057955E-03
  0.00000000E+00  0.00000000E+00  0.00000000E+00 -6.31670165E-01 -1.20807356E-01
  0.00000000E+00  9.72214493E-01  1.85934590E-01  0.00000000E+00  0.00000000E+00
  0.00000000E+00  0.00000000E+00  0.00000000E+00  2.86575527E-02  5.48051099E-03
  1.05429407E-01  1.90319316E-01 -1.20699918E-01  0.00000000E+00  0.00000000E+00
  6.39413500E-01  0.00000000E+00  0.00000000E+00 -7.29808649E-01 -2.34416097E-02
 -2.34415662E-02  2.53023793E-01  3.91902670E-09  0.00000000E+00  0.00000000E+00
  1.05427341E-01  1.90314768E-01 -1.20695041E-01  0.00000000E+00  0.00000000E+00
 -6.39421550E-01  0.00000000E+00  0.00000000E+00  7.29814364E-01 -2.34423747E-02
 -2.34423926E-02  2.53021705E-01 -2.61904609E-08  0.00000000E+00  0.00000000E+00
 -5.84508346E-01 -1.12315518E+00  2.99892044E+00  0.00000000E+00  0.00000000E+00
 -1.35066973E-01  0.00000000E+00  0.00000000E+00  1.49705159E+00 -1.93704912E-01
 -1.93704953E-01 -2.44708821E-01 -7.82301283E-08  0.00000000E+00  0.00000000E+00
  5.84507983E-01  1.12315438E+00 -2.99891856E+00  0.00000000E+00  0.00000000E+00
 -1.35069304E-01  0.00000000E+00  0.00000000E+00  1.49705389E+00  1.93704255E-01
  1.93704396E-01  2.44708703E-01  1.14725674E-07  0.00000000E+00  0.00000000E+00
  0.00000000E+00  0.00000000E+00  0.00000000E+00 -1.41690476E-02 -1.61839286E-02
  0.00000000E+00 -4.65351413E-02 -5.31560725E-02  0.00000000E+00  0.00000000E+00
  0.00000000E+00  0.00000000E+00  0.00000000E+00  4.34869127E-01  4.96742498E-01
  0.00000000E+00  0.00000000E+00  0.00000000E+00 -1.41676672E-02 -1.61843630E-02
  0.00000000E+00 -4.65351706E-02 -5.31562782E-02  0.00000000E+00  0.00000000E+00
  0.00000000E+00  0.00000000E+00  0.00000000E+00 -4.34868705E-01 -4.96742160E-01
  0.00000000E+00  0.00000000E+00  0.00000000E+00 -1.61848678E-02  1.41676071E-02
  0.00000000E+00 -5.31562935E-02  4.65348759E-02  0.00000000E+00  0.00000000E+00
  0.00000000E+00  0.00000000E+00  0.00000000E+00  4.96742479E-01 -4.34869050E-01
  0.00000000E+00  0.00000000E+00  0.00000000E+00 -1.61844325E-02  1.41690925E-02
  0.00000000E+00 -5.31563649E-02  4.65354273E-02  0.00000000E+00  0.00000000E+00
  0.00000000E+00  0.00000000E+00  0.00000000E+00 -4.96742134E-01  4.34868782E-01
  8.30835550E-09  5.15142434E-09 -1.50484550E-07  0.00000000E+00  0.00000000E+00
  1.85722243E-07  0.00000000E+00  0.00000000E+00 -6.11055661E-08  4.07681145E-01
 -4.07681067E-01  1.25025846E-08  5.15801213E-01  0.00000000E+00  0.00000000E+00
 -4.89936673E-09  6.98794414E-09  9.92770223E-08  0.00000000E+00  0.00000000E+00
  1.24053925E-07  0.00000000E+00  0.00000000E+00 -1.14062846E-07  4.07679881E-01
 -4.07680007E-01  8.50483437E-08  5.15800280E-01  0.00000000E+00  0.00000000E+00
  3.12891681E-08  1.11409375E-07 -1.12022811E-07  0.00000000E+00  0.00000000E+00
  2.94579015E-07  0.00000000E+00  0.00000000E+00 -5.71561513E-08 -4.46696907E-01
  4.46697000E-01 -8.59185959E-08  4.70749593E-01  0.00000000E+00  0.00000000E+00
 -3.83096285E-08 -1.16168712E-07  1.27551181E-07  0.00000000E+00  0.00000000E+00
 -2.56567627E-08  0.00000000E+00  0.00000000E+00 -1.03034481E-07 -4.46696142E-01
  4.46696149E-01 -7.20577319E-08  4.70748251E-01  0.00000000E+00  0.00000000E+00
 -1.24409185E-01 -3.21605712E-01  1.46864177E-01  0.00000000E+00  0.00000000E+00
 -3.48161420E-01  0.00000000E+00  0.00000000E+00  2.46357672E-01 -3.10702497E-01
 -3.10701657E-01  6.09641538E-01 -6.20926251E-07  0.00000000E+00  0.00000000E+00
 -1.24408877E-01 -3.21605094E-01  1.46862788E-01  0.00000000E+00  0.00000000E+00
  3.48161422E-01  0.00000000E+00  0.00000000E+00 -2.46356828E-01 -3.10701505E-01
 -3.10702039E-01  6.09641127E-01  6.80933453E-07  0.00000000E+00  0.00000000E+00
  2.29913235E-07  6.12957110E-07 -6.02235711E-07  0.00000000E+00  0.00000000E+00
  1.13817990E-06  0.00000000E+00  0.00000000E+00 -3.84825087E-07  2.79918339E-01
 -2.79917841E-01 -4.27173834E-07 -6.39150227E-01  0.00000000E+00  0.00000000E+00
 -6.48350937E-08 -1.61248025E-07  4.01394336E-07  0.00000000E+00  0.00000000E+00
  4.59135945E-07  0.00000000E+00  0.00000000E+00 -2.16761892E-07 -2.79918903E-01
  2.79919038E-01 -2.35921074E-07  6.39151455E-01  0.00000000E+00  0.00000000E+00
  1.28214418E-07  3.30608543E-07 -1.33647983E-07  0.00000000E+00  0.00000000E+00
  2.56553972E-07  0.00000000E+00  0.00000000E+00 -2.69785997E-07 -5.53520072E-01
  5.53520596E-01 -5.94494209E-07 -3.23221569E-01  0.00000000E+00  0.00000000E+00
  1.26041506E-07  2.89542062E-07 -1.67681582E-07  0.00000000E+00  0.00000000E+00
 -1.86363373E-07  0.00000000E+00  0.00000000E+00  2.33714506E-07  5.53521653E-01
 -5.53521141E-01 -5.63483594E-07  3.23222586E-01  0.00000000E+00  0.00000000E+00
  0.00000000E+00  0.00000000E+00  0.00000000E+00 -5.94967910E-02  4.02634865E-02
  0.00000000E+00  2.05743700E-01 -1.39234796E-01  0.00000000E+00  0.00000000E+00
  0.00000000E+00  0.00000000E+00  0.00000000E+00  6.53100732E-01 -4.41978708E-01
  0.00000000E+00  0.00000000E+00  0.00000000E+00  5.94971116E-02 -4.02629834E-02
  0.00000000E+00 -2.05743588E-01  1.39235094E-01  0.00000000E+00  0.00000000E+00
  0.00000000E+00  0.00000000E+00  0.00000000E+00  6.53101091E-01 -4.41978855E-01
  0.00000000E+00  0.00000000E+00  0.00000000E+00 -4.02629015E-02 -5.94955751E-02
  0.00000000E+00  1.39235057E-01  2.05744141E-01  0.00000000E+00  0.00000000E+00
  0.00000000E+00  0.00000000E+00  0.00000000E+00  4.41978639E-01  6.53100764E-01
  0.00000000E+00  0.00000000E+00  0.00000000E+00  4.02626600E-02  5.94956424E-02
  0.00000000E+00 -1.39235131E-01 -2.05744097E-01  0.00000000E+00  0.00000000E+00
  0.00000000E+00  0.00000000E+00  0.00000000E+00  4.41978936E-01  6.53101095E-01
  2.89369858E-01  4.25384597E-01 -1.98616821E+00  0.00000000E+00  0.00000000E+00
 -5.01772511E-02  0.00000000E+00  0.00000000E+00 -1.26362121E+00  6.19131539E-01
  6.19131632E-01 -8.74967420E-01  4.92137722E-08  0.00000000E+00  0.00000000E+00
 -2.89369787E-01 -4.25383740E-01  1.98616978E+00  0.00000000E+00  0.00000000E+00
 -5.01773626E-02  0.00000000E+00  0.00000000E+00 -1.26362098E+00 -6.19132986E-01
 -6.19133020E-01  8.74966778E-01 -1.31307621E-07  0.00000000E+00  0.00000000E+00
  1.92856718E-01  1.05259216E+00  9.62945359E-01  0.00000000E+00  0.00000000E+00
 -2.08217621E-02  0.00000000E+00  0.00000000E+00  4.80765712E-02 -9.88461333E-01
 -9.88461362E-01 -7.90098821E-01  1.91134580E-08  0.00000000E+00  0.00000000E+00
  1.92856685E-01  1.05259013E+00  9.62940110E-01  0.00000000E+00  0.00000000E+00
  2.08262361E-02  0.00000000E+00  0.00000000E+00 -4.80737919E-02 -9.88459403E-01
 -9.88459384E-01 -7.90098622E-01 -1.91389418E-08  0.00000000E+00  0.00000000E+00
 -1.27003064E-01 -9.58236848E-01 -1.79481341E+00  0.00000000E+00  0.00000000E+00
  9.63329106E-02  0.00000000E+00  0.00000000E+00 -3.92501185E-01  9.93746161E-01
  9.93746176E-01  1.11906633E+00 -1.47329771E-08  0.00000000E+00  0.00000000E+00
  1.27003292E-01  9.58238013E-01  1.79481448E+00  0.00000000E+00  0.00000000E+00
  9.63332322E-02  0.00000000E+00  0.00000000E+00 -3.92501172E-01 -9.93747315E-01
 -9.93747300E-01 -1.11906733E+00 -7.79232209E-09  0.00000000E+00  0.00000000E+00
Orthonormal basis                          R   N=         900
  1.35361383E-02  1.42964741E-01  1.81697779E-01 -6.73933551E-18  0.00000000E+00
  5.07852705E-02  2.78973745E-20 -8.55399186E-21  1.10469901E-01  1.16962164E-01
  1.16962164E-01  1.48775917E-01  0.00000000E+00  5.96332395E-22 -1.91623054E-22
  1.35361383E-02  1.42964741E-01  1.81697779E-01  3.63814524E-21 -8.52133548E-22
 -5.07852705E-02  1.79190864E-20 -3.70357782E-21 -1.10469901E-01  1.16962164E-01
  1.16962164E-01  1.48775917E-01  1.95599266E-39  2.84636894E-21  1.09293850E-21
  1.22153120E-02  1.94235756E-01  1.75462960E-01  0.00000000E+00  0.00000000E+00
 -5.47811945E-02 -4.49110932E-19  4.94755307E-19 -1.38461071E-01  1.66001686E-01
  1.66001686E-01  1.33312524E-01  0.00000000E+00 -2.66963936E-20  2.42471505E-20
 -1.22153120E-02 -1.94235756E-01 -1.75462960E-01 -1.24795977E-19  8.99122601E-20
 -5.47811945E-02 -4.08156484E-19  2.47359985E-19 -1.38461071E-01 -1.66001686E-01
 -1.66001686E-01 -1.33312524E-01 -2.20987896E-35 -5.69277584E-20 -7.77062767E-20
  4.12978616E-16 -1.82641408E-15 -1.36521661E-15  8.56956136E-02  2.89126323E-01
  5.73802217E-15  1.14956191E-01  3.87847866E-01  5.52832846E-15 -1.40693358E-15
 -1.26720776E-15 -6.07798169E-16 -6.90411211E-17  2.99245896E-02  1.00961837E-01
  5.71727322E-16 -1.79722543E-15 -1.33623490E-15  8.56956136E-02  2.89126323E-01
 -5.86047476E-15  1.14956191E-01  3.87847866E-01 -5.48802409E-15 -1.38837520E-15
 -1.50470801E-15 -4.72229399E-16  2.29466027E-18 -2.99245896E-02 -1.00961837E-01
 -1.33571683E-16  5.75847341E-16  4.02892133E-16  2.89126323E-01 -8.56956136E-02
 -1.90834321E-15  3.87847866E-01 -1.14956191E-01 -1.75592947E-15  5.26406592E-16
  3.60758777E-16  2.46339495E-16  1.44466729E-16  1.00961837E-01 -2.99245896E-02
 -1.47312444E-16  5.77536963E-16  3.90014997E-16  2.89126323E-01 -8.56956136E-02
  1.91049333E-15  3.87847866E-01 -1.14956191E-01  1.77275343E-15  5.34088567E-16
  3.52002419E-16  2.32470376E-16  1.60920583E-17 -1.00961837E-01  2.99245896E-02
  2.64270270E-02 -1.10071644E-01 -8.44457532E-02  1.68989561E-16 -5.57665551E-15
  3.66163647E-01  1.73439110E-16 -7.41314030E-15  3.44791429E-01 -8.76225249E-02
 -8.76225249E-02 -3.67364880E-02  1.47547306E-26  4.88909294E-17 -1.91272647E-15
  2.64270270E-02 -1.10071644E-01 -8.44457532E-02  1.41139929E-16 -5.48274783E-15
 -3.66163647E-01  1.89063774E-16 -7.37355374E-15 -3.44791429E-01 -8.76225249E-02
 -8.76225249E-02 -3.67364880E-02  1.00795692E-27 -4.65947883E-17  1.92639430E-15
  1.18991283E-17  5.45558035E-17  1.00052028E-17  4.89864200E-01  2.40562679E-02
  1.62482982E-17  3.41952134E-01  1.67925971E-02  3.29280992E-17  2.67935527E-16
 -1.59428933E-16 -6.07679160E-17  3.41891569E-16 -1.71000693E-01 -8.39750790E-03
  2.20825168E-16 -6.25290523E-17 -8.34388870E-17 -4.89864200E-01 -2.40562679E-02
  6.85449163E-17 -3.41952134E-01 -1.67925971E-02  3.83026534E-17 -1.13408941E-16
  1.06378496E-16  6.06003017E-17  3.51913641E-16 -1.71000693E-01 -8.39750790E-03
  3.43840628E-17 -8.41346540E-17 -5.60753732E-17 -2.40562679E-02  4.89864200E-01
  5.44544390E-17 -1.67925971E-02  3.41952134E-01 -3.99752780E-17 -2.06493565E-17
  8.96259374E-17  2.47039212E-18 -1.45424841E-16  8.39750790E-03 -1.71000693E-01
  3.24974367E-16 -8.49113621E-17  4.02643565E-17  2.40562679E-02 -4.89864200E-01
 -2.47129575E-16  1.67925971E-02 -3.41952134E-01  3.26611257E-17  3.42149252E-17
 -1.61530291E-17  3.07080152E-17 -1.18875402E-17  8.39750790E-03 -1.71000693E-01
 -3.51944436E-17 -7.14028523E-18 -1.69518465E-17 -9.86840963E-02  6.75269538E-02
  3.68527716E-17 -6.57991251E-02  4.50246255E-02 -2.58116061E-18  1.51978958E-17
  4.00563014E-17 -6.26269730E-19 -2.69729466E-16  5.35372789E-01 -3.66341639E-01
  3.20835604E-16 -1.22302424E-16  4.53006676E-17 -9.86840963E-02  6.75269538E-02
  3.32206259E-17 -6.57991251E-02  4.50246255E-02  3.54382459E-17  5.33421275E-17
 -1.18602481E-17  1.66198619E-17 -5.35302590E-16 -5.35372789E-01  3.66341639E-01
 -2.86690651E-16  1.14633550E-16 -8.88454353E-17 -6.75269538E-02 -9.86840963E-02
  9.79941325E-17 -4.50246255E-02 -6.57991251E-02  7.70832749E-17  2.71531854E-16
 -2.06483062E-16 -7.92567933E-18 -1.55328327E-15  3.66341639E-01  5.35372789E-01
 -1.08208608E-16 -3.15402574E-17 -5.63125541E-17 -6.75269538E-02 -9.86840963E-02
  1.00732566E-16 -4.50246255E-02 -6.57991251E-02  1.94911060E-17  4.32966209E-16
 -4.17924792E-16  3.71979169E-17 -9.21832608E-16 -3.66341639E-01 -5.35372789E-01
  5.63214569E-01 -2.31376523E-01  8.66218563E-02  7.83227430E-17  1.59908934E-16
 -1.99432786E-01  1.32543574E-17 -8.04997824E-17 -1.31647531E-01 -4.24581558E-02
 -4.24581558E-02  5.85530234E-02 -1.49388777E-22  2.18254837E-16  3.61649203E-17
 -5.63214569E-01  2.31376523E-01 -8.66218563E-02 -1.19878027E-16 -3.89685096E-17