Title section
Stability RHF                                                         CC-pVDZ
Number of atoms                            I                2
Info1-9                                    I   N=           9
          13          12           0           0           0         110
           7           1           2
Full Title                                 C   N=           2
Title section
Route                                      C   N=          11
#p int=(nobasistransform) nosymm pop=full punch=gamessinput
gfprint uhf/cc-pvdz 6D 10F guess=mix SCF=(xqc, maxcycle=500)
 stable=opt
Charge                                     I                0
Multiplicity                               I                1
Number of electrons                        I               14
Number of alpha electrons                  I                7
Number of beta electrons                   I                7
Number of basis functions                  I               30
Number of independent functions            I               30
Number of point charges in /Mol/           I                0
Number of translation vectors              I                0
Atomic numbers                             I   N=           2
           7           7
Nuclear charges                            R   N=           2
  7.00000000E+00  7.00000000E+00
Current cartesian coordinates              R   N=           6
  0.00000000E+00  0.00000000E+00  0.00000000E+00  0.00000000E+00  0.00000000E+00
  3.90001678E+00
Number of symbols in /Mol/                 I                0
Force Field                                I                0
Atom Types                                 C   N=           2

Int Atom Types                             I   N=           2
           0           0
MM charges                                 R   N=           2
  0.00000000E+00  0.00000000E+00
Integer atomic weights                     I   N=           2
          14          14
Real atomic weights                        R   N=           2
  1.40030740E+01  1.40030740E+01
Atom fragment info                         I   N=           2
           0           0
Atom residue num                           I   N=           2
           0           0
Nuclear spins                              I   N=           2
           2           2
Nuclear ZEff                               R   N=           2
 -4.55000000E+00 -4.55000000E+00
Nuclear ZNuc                               R   N=           2
  7.00000000E+00  7.00000000E+00
Nuclear QMom                               R   N=           2
  2.04400000E+00  2.04400000E+00
Nuclear GFac                               R   N=           2
  4.03761000E-01  4.03761000E-01
MicOpt                                     I   N=           2
          -1          -1
Number of residues                         I                0
Number of secondary structures             I                0
Number of contracted shells                I               12
Number of primitive shells                 I               44
Pure/Cartesian d shells                    I                1
Pure/Cartesian f shells                    I                1
Highest angular momentum                   I                2
Largest degree of contraction              I                8
Shell types                                I   N=          12
           0           0           0           1           1           2
           0           0           0           1           1           2
Number of primitives per shell             I   N=          12
           8           8           1           3           1           1
           8           8           1           3           1           1
Shell to atom map                          I   N=          12
           1           1           1           1           1           1
           2           2           2           2           2           2
Primitive exponents                        R   N=          44
  9.04600000E+03  1.35700000E+03  3.09300000E+02  8.77300000E+01  2.85600000E+01
  1.02100000E+01  3.83800000E+00  7.46600000E-01  9.04600000E+03  1.35700000E+03
  3.09300000E+02  8.77300000E+01  2.85600000E+01  1.02100000E+01  3.83800000E+00
  7.46600000E-01  2.24800000E-01  1.35500000E+01  2.91700000E+00  7.97300000E-01
  2.18500000E-01  8.17000000E-01  9.04600000E+03  1.35700000E+03  3.09300000E+02
  8.77300000E+01  2.85600000E+01  1.02100000E+01  3.83800000E+00  7.46600000E-01
  9.04600000E+03  1.35700000E+03  3.09300000E+02  8.77300000E+01  2.85600000E+01
  1.02100000E+01  3.83800000E+00  7.46600000E-01  2.24800000E-01  1.35500000E+01
  2.91700000E+00  7.97300000E-01  2.18500000E-01  8.17000000E-01
Contraction coefficients                   R   N=          44
  6.99617413E-04  5.38605463E-03  2.73910212E-02  1.03150592E-01  2.78570663E-01
  4.48294849E-01  2.78085928E-01  1.54315612E-02 -3.04990096E-04 -2.40802638E-03
 -1.19444487E-02 -4.89259929E-02 -1.34472725E-01 -3.15112578E-01 -2.42857833E-01
  1.09438221E+00  1.00000000E+00  5.89056768E-02  3.20461107E-01  7.53042062E-01
  1.00000000E+00  1.00000000E+00  6.99617413E-04  5.38605463E-03  2.73910212E-02
  1.03150592E-01  2.78570663E-01  4.48294849E-01  2.78085928E-01  1.54315612E-02
 -3.04990096E-04 -2.40802638E-03 -1.19444487E-02 -4.89259929E-02 -1.34472725E-01
 -3.15112578E-01 -2.42857833E-01  1.09438221E+00  1.00000000E+00  5.89056768E-02
  3.20461107E-01  7.53042062E-01  1.00000000E+00  1.00000000E+00
Coordinates of each shell                  R   N=          36
  0.00000000E+00  0.00000000E+00  0.00000000E+00  0.00000000E+00  0.00000000E+00
  0.00000000E+00  0.00000000E+00  0.00000000E+00  0.00000000E+00  0.00000000E+00
  0.00000000E+00  0.00000000E+00  0.00000000E+00  0.00000000E+00  0.00000000E+00
  0.00000000E+00  0.00000000E+00  0.00000000E+00  0.00000000E+00  0.00000000E+00
  3.90001678E+00  0.00000000E+00  0.00000000E+00  3.90001678E+00  0.00000000E+00
  0.00000000E+00  3.90001678E+00  0.00000000E+00  0.00000000E+00  3.90001678E+00
  0.00000000E+00  0.00000000E+00  3.90001678E+00  0.00000000E+00  0.00000000E+00
  3.90001678E+00
Num ILSW                                   I              100
ILSW                                       I   N=         100
           0           1           0           0           2           1
           0           0           0           0           0          -1
           5           0           0           1           0           0
           0           0           0           0           0           0
           1           1           0           0           0           0
           0           0      100000           0          -1           0
           0           0           0           0           0           0
           0           0           0           1           0           0
           0 -2000000000           1           0           0           0
           0           0           4          52           0           0
           0           0           0           0           0           0
           0           0           0           2           0           1
           0           0           0           0           0           0
           0           0           0           0           0           0
           0           0           0           0           0           0
           0           0           0           0           0           0
           0           0           0           0
Num RLSW                                   I               52
RLSW                                       R   N=          52
  1.00000000E+00  1.00000000E+00  1.00000000E+00  1.00000000E+00  1.00000000E+00
  0.00000000E+00  0.00000000E+00  1.00000000E+00  0.00000000E+00  0.00000000E+00
  0.00000000E+00  0.00000000E+00  1.00000000E+00  0.00000000E+00  0.00000000E+00
  0.00000000E+00  0.00000000E+00  1.00000000E+00  0.00000000E+00  0.00000000E+00
  0.00000000E+00  0.00000000E+00  1.00000000E+00  0.00000000E+00  0.00000000E+00
  0.00000000E+00  0.00000000E+00  1.00000000E+00  0.00000000E+00  0.00000000E+00
  0.00000000E+00  0.00000000E+00  1.00000000E+00  0.00000000E+00  0.00000000E+00
  0.00000000E+00  0.00000000E+00  0.00000000E+00  1.00000000E+00  1.00000000E+00
  0.00000000E+00  1.00000000E+00  0.00000000E+00  0.00000000E+00  0.00000000E+00
  0.00000000E+00  0.00000000E+00  0.00000000E+00  0.00000000E+00  0.00000000E+00
  0.00000000E+00  0.00000000E+00
MxBond                                     I                1
NBond                                      I   N=           2
           0           0
IBond                                      I   N=           2
           0           0
RBond                                      R   N=           2
  0.00000000E+00  0.00000000E+00
Virial Ratio                               R      2.001073164980037E+00
SCF Energy                                 R     -1.086590997128431E+02
Total Energy                               R     -1.086590997128431E+02
S**2                                       R      2.756723380075683E+00
S**2 after annihilation                    R      8.023828387366100E+00
RMS Density                                R      2.662299546886715E-09
Job Status                                 I                1
Nuclear derivative order                   I                0
External E-field                           R   N=          35
  0.00000000E+00  0.00000000E+00  0.00000000E+00  0.00000000E+00  0.00000000E+00
  0.00000000E+00  0.00000000E+00  0.00000000E+00  0.00000000E+00  0.00000000E+00
  0.00000000E+00  0.00000000E+00  0.00000000E+00  0.00000000E+00  0.00000000E+00
  0.00000000E+00  0.00000000E+00  0.00000000E+00  0.00000000E+00  0.00000000E+00
  0.00000000E+00  0.00000000E+00  0.00000000E+00  0.00000000E+00  0.00000000E+00
  0.00000000E+00  0.00000000E+00  0.00000000E+00  0.00000000E+00  0.00000000E+00
  0.00000000E+00  0.00000000E+00  0.00000000E+00  0.00000000E+00  0.00000000E+00
IOpCl                                      I                0
IROHF                                      I                0
Alpha Orbital Energies                     R   N=          30
 -1.56731602E+01 -1.56469036E+01 -1.04932569E+00 -8.93788716E-01 -5.43891565E-01
 -5.25769594E-01 -5.13039926E-01  1.07714698E-01  1.28966471E-01  1.68320157E-01
  8.66857532E-01  8.85094203E-01  8.96779790E-01  9.11954228E-01  1.06964828E+00
  1.08211542E+00  1.11568777E+00  1.26761448E+00  1.84087116E+00  1.92678559E+00
  1.96190119E+00  2.03010696E+00  2.03283064E+00  2.05229438E+00  2.07000482E+00
  2.15370237E+00  2.18838843E+00  2.61264308E+00  3.76234915E+00  3.93517905E+00
Alpha MO coefficients                      R   N=         900
  7.08440173E-01  6.90936136E-04 -3.87771566E-04  0.00000000E+00  0.00000000E+00
  2.46514928E-04  0.00000000E+00  0.00000000E+00 -2.06049944E-04 -1.05573651E-03
 -1.05574515E-03 -1.02440305E-03 -5.20475642E-09  0.00000000E+00  0.00000000E+00
  7.06624500E-01  6.88789956E-04 -3.85077534E-04  0.00000000E+00  0.00000000E+00
 -2.45608403E-04  0.00000000E+00  0.00000000E+00  2.04683457E-04 -1.05334797E-03
 -1.05335191E-03 -1.02157326E-03 -2.66586260E-09  0.00000000E+00  0.00000000E+00
 -7.06741418E-01 -8.31909178E-04  1.05095991E-03  0.00000000E+00  0.00000000E+00
 -3.59499366E-04  0.00000000E+00  0.00000000E+00  5.34962923E-04  9.28773269E-04
  9.28780593E-04  1.09981468E-03  5.22880442E-09  0.00000000E+00  0.00000000E+00
  7.08556786E-01  8.33665946E-04 -1.05195399E-03  0.00000000E+00  0.00000000E+00
 -3.60149324E-04  0.00000000E+00  0.00000000E+00  5.35475565E-04 -9.31478853E-04
 -9.31481316E-04 -1.10243121E-03 -1.66691599E-09  0.00000000E+00  0.00000000E+00
  5.54520787E-04  3.48062552E-01  3.85726495E-01  0.00000000E+00  0.00000000E+00
 -3.38120988E-03  0.00000000E+00  0.00000000E+00 -7.81507126E-03 -2.35743860E-03
 -2.35738009E-03  3.91003410E-03  3.68375835E-08  0.00000000E+00  0.00000000E+00
  5.54769603E-04  3.48062408E-01  3.85724887E-01  0.00000000E+00  0.00000000E+00
  3.38179210E-03  0.00000000E+00  0.00000000E+00  7.81538326E-03 -2.35732043E-03
 -2.35739118E-03  3.91001675E-03 -4.72669794E-08  0.00000000E+00  0.00000000E+00
  3.45436875E-03  3.70759784E-01  4.25454063E-01  0.00000000E+00  0.00000000E+00
 -3.56626492E-02  0.00000000E+00  0.00000000E+00 -1.69825327E-02  9.81971474E-05
  9.82466130E-05 -3.47264315E-03  3.87416683E-08  0.00000000E+00  0.00000000E+00
 -3.45478627E-03 -3.70761491E-01 -4.25453932E-01  0.00000000E+00  0.00000000E+00
 -3.56641071E-02  0.00000000E+00  0.00000000E+00 -1.69837059E-02 -9.84451013E-05
 -9.83486915E-05  3.47273151E-03  6.68399992E-08  0.00000000E+00  0.00000000E+00
 -2.71397896E-03 -3.08215751E-02 -6.53619019E-02  0.00000000E+00  0.00000000E+00
  4.33327834E-01  0.00000000E+00  0.00000000E+00  3.08934899E-01 -4.99842995E-03
 -4.99850131E-03  1.76183166E-02 -4.39796994E-08  0.00000000E+00  0.00000000E+00
 -2.71389278E-03 -3.08199769E-02 -6.53606767E-02  0.00000000E+00  0.00000000E+00
 -4.33327832E-01  0.00000000E+00  0.00000000E+00 -3.08934567E-01 -4.99861545E-03
 -4.99854949E-03  1.76185464E-02  4.92826482E-08  0.00000000E+00  0.00000000E+00
  0.00000000E+00  0.00000000E+00  0.00000000E+00  4.12941075E-01 -1.90085278E-01
  0.00000000E+00  2.96588749E-01 -1.36525841E-01  0.00000000E+00  0.00000000E+00
  0.00000000E+00  0.00000000E+00  0.00000000E+00  5.56219042E-03 -2.56038597E-03
  0.00000000E+00  0.00000000E+00  0.00000000E+00  4.12940663E-01 -1.90085093E-01
  0.00000000E+00  2.96589052E-01 -1.36525845E-01  0.00000000E+00  0.00000000E+00
  0.00000000E+00  0.00000000E+00  0.00000000E+00 -5.56224653E-03  2.56041187E-03
  0.00000000E+00  0.00000000E+00  0.00000000E+00  1.90084130E-01  4.12938673E-01
  0.00000000E+00  1.36526885E-01  2.96591095E-01  0.00000000E+00  0.00000000E+00
  0.00000000E+00  0.00000000E+00  0.00000000E+00  2.56041349E-03  5.56224996E-03
  0.00000000E+00  0.00000000E+00  0.00000000E+00  1.90084130E-01  4.12938644E-01
  0.00000000E+00  1.36526893E-01  2.96591089E-01  0.00000000E+00  0.00000000E+00
  0.00000000E+00  0.00000000E+00  0.00000000E+00 -2.56041084E-03 -5.56224426E-03
  0.00000000E+00  0.00000000E+00  0.00000000E+00  2.08847341E-01  4.53701378E-01
  0.00000000E+00  1.39083202E-01  3.02145124E-01  0.00000000E+00  0.00000000E+00
  0.00000000E+00  0.00000000E+00  0.00000000E+00  5.01592061E-04  1.08966295E-03
  0.00000000E+00  0.00000000E+00  0.00000000E+00 -2.08847095E-01 -4.53700978E-01
  0.00000000E+00 -1.39083372E-01 -3.02145584E-01  0.00000000E+00  0.00000000E+00
  0.00000000E+00  0.00000000E+00  0.00000000E+00  5.01615792E-04  1.08970960E-03
  0.00000000E+00  0.00000000E+00  0.00000000E+00  4.53703328E-01 -2.08848202E-01
  0.00000000E+00  3.02142490E-01 -1.39081965E-01  0.00000000E+00  0.00000000E+00
  0.00000000E+00  0.00000000E+00  0.00000000E+00  1.08963095E-03 -5.01577517E-04
  0.00000000E+00  0.00000000E+00  0.00000000E+00 -4.53703224E-01  2.08848152E-01
  0.00000000E+00 -3.02142804E-01  1.39082134E-01  0.00000000E+00  0.00000000E+00
  0.00000000E+00  0.00000000E+00  0.00000000E+00  1.08970611E-03 -5.01614548E-04
 -1.26474028E-03  6.27690389E-02  1.34458752E-01  0.00000000E+00  0.00000000E+00
  5.58781600E-01  0.00000000E+00  0.00000000E+00  3.51339062E-01  1.19745015E-03
  1.19744785E-03 -4.96338136E-03  8.00687087E-09  0.00000000E+00  0.00000000E+00
  1.26416769E-03 -6.27706691E-02 -1.34457284E-01  0.00000000E+00  0.00000000E+00
  5.58780956E-01  0.00000000E+00  0.00000000E+00  3.51339686E-01 -1.19714375E-03
 -1.19722174E-03  4.96212676E-03 -4.28125952E-08  0.00000000E+00  0.00000000E+00
 -3.91665516E-01 -8.63668488E-01  1.24680768E+00  0.00000000E+00  0.00000000E+00
  1.30627710E-01  0.00000000E+00  0.00000000E+00 -2.13817473E-01 -2.00145883E-01
 -2.00145839E-01 -2.07254313E-01  2.95422709E-08  0.00000000E+00  0.00000000E+00
 -3.91663355E-01 -8.63663043E-01  1.24680246E+00  0.00000000E+00  0.00000000E+00
 -1.30623612E-01  0.00000000E+00  0.00000000E+00  2.13809289E-01 -2.00144749E-01
 -2.00144694E-01 -2.07253271E-01  3.79354084E-08  0.00000000E+00  0.00000000E+00
  2.38288057E-01  5.45310267E-01 -6.62883398E-01  0.00000000E+00  0.00000000E+00
 -4.87233421E-01  0.00000000E+00  0.00000000E+00  7.42755165E-01  1.22509317E-01
  1.22509293E-01  1.18357001E-01 -1.72287564E-08  0.00000000E+00  0.00000000E+00
 -2.38291956E-01 -5.45318723E-01  6.62895842E-01  0.00000000E+00  0.00000000E+00
 -4.87234064E-01  0.00000000E+00  0.00000000E+00  7.42756752E-01 -1.22511370E-01
 -1.22511330E-01 -1.18358924E-01  2.71650467E-08  0.00000000E+00  0.00000000E+00
  0.00000000E+00  0.00000000E+00  0.00000000E+00  6.20219024E-01 -2.89587626E-01
  0.00000000E+00 -6.14033766E-01  2.86699580E-01  0.00000000E+00  0.00000000E+00
  0.00000000E+00  0.00000000E+00  0.00000000E+00 -2.44563328E-02  1.14189550E-02
  0.00000000E+00  0.00000000E+00  0.00000000E+00  6.20217916E-01 -2.89587182E-01
  0.00000000E+00 -6.14031998E-01  2.86698850E-01  0.00000000E+00  0.00000000E+00
  0.00000000E+00  0.00000000E+00  0.00000000E+00  2.44563790E-02 -1.14189722E-02
  0.00000000E+00  0.00000000E+00  0.00000000E+00  2.89588267E-01  6.20220297E-01
  0.00000000E+00 -2.86699076E-01 -6.14032606E-01  0.00000000E+00  0.00000000E+00
  0.00000000E+00  0.00000000E+00  0.00000000E+00 -1.14189570E-02 -2.44563404E-02
  0.00000000E+00  0.00000000E+00  0.00000000E+00  2.89587922E-01  6.20219578E-01
  0.00000000E+00 -2.86698358E-01 -6.14031043E-01  0.00000000E+00  0.00000000E+00
  0.00000000E+00  0.00000000E+00  0.00000000E+00  1.14189769E-02  2.44563848E-02
  0.00000000E+00  0.00000000E+00  0.00000000E+00  6.10780053E-01 -2.81776807E-01
  0.00000000E+00 -7.86060224E-01  3.62640482E-01  0.00000000E+00  0.00000000E+00
  0.00000000E+00  0.00000000E+00  0.00000000E+00  3.91853319E-02 -1.80777336E-02
  0.00000000E+00  0.00000000E+00  0.00000000E+00 -6.10781502E-01  2.81777480E-01
  0.00000000E+00  7.86061359E-01 -3.62641010E-01  0.00000000E+00  0.00000000E+00
  0.00000000E+00  0.00000000E+00  0.00000000E+00  3.91852894E-02 -1.80777143E-02
  0.00000000E+00  0.00000000E+00  0.00000000E+00  2.81777551E-01  6.10781809E-01
  0.00000000E+00 -3.62640015E-01 -7.86059238E-01  0.00000000E+00  0.00000000E+00
  0.00000000E+00  0.00000000E+00  0.00000000E+00  1.80777515E-02  3.91853673E-02
  0.00000000E+00  0.00000000E+00  0.00000000E+00 -2.81778144E-01 -6.10782831E-01
  0.00000000E+00  3.62640531E-01  7.86060272E-01  0.00000000E+00  0.00000000E+00
  0.00000000E+00  0.00000000E+00  0.00000000E+00  1.80777338E-02  3.91853340E-02
 -7.70955548E-02 -2.01408895E-01  1.10041504E-01  0.00000000E+00  0.00000000E+00
 -7.23511008E-01  0.00000000E+00  0.00000000E+00  6.43960255E-01 -1.34007507E-02
 -1.34007237E-02 -6.66487954E-02  1.77596293E-08  0.00000000E+00  0.00000000E+00
 -7.70952925E-02 -2.01408233E-01  1.10040744E-01  0.00000000E+00  0.00000000E+00
  7.23511678E-01  0.00000000E+00  0.00000000E+00 -6.43960498E-01 -1.34005848E-02
 -1.34005708E-02 -6.66486848E-02  9.37178026E-09  0.00000000E+00  0.00000000E+00
 -4.45212137E-01 -8.64818600E-01  1.75079845E+00  0.00000000E+00  0.00000000E+00
 -3.89765427E-01  0.00000000E+00  0.00000000E+00  1.06213729E+00 -1.25408392E-01
 -1.25408356E-01 -3.19895778E-01  2.27896468E-08  0.00000000E+00  0.00000000E+00
  4.45212005E-01  8.64818243E-01 -1.75079808E+00  0.00000000E+00  0.00000000E+00
 -3.89765394E-01  0.00000000E+00  0.00000000E+00  1.06213757E+00  1.25408277E-01
  1.25408240E-01  3.19895780E-01 -2.69427172E-08  0.00000000E+00  0.00000000E+00
  3.40458719E-03 -3.68059074E-02 -1.03854586E-01  0.00000000E+00  0.00000000E+00
 -2.38555379E-02  0.00000000E+00  0.00000000E+00 -3.48237834E-02 -2.89587780E-01
 -2.89587794E-01  7.38636532E-01 -9.90874213E-09  0.00000000E+00  0.00000000E+00
  3.40462665E-03 -3.68058305E-02 -1.03854803E-01  0.00000000E+00  0.00000000E+00
  2.38564991E-02  0.00000000E+00  0.00000000E+00  3.48241364E-02 -2.89587655E-01
 -2.89587723E-01  7.38636405E-01 -4.45646088E-08  0.00000000E+00  0.00000000E+00
  0.00000000E+00  0.00000000E+00  0.00000000E+00  1.92254814E-02  4.17427612E-02
  0.00000000E+00 -3.27791496E-02 -7.11707577E-02  0.00000000E+00  0.00000000E+00
  0.00000000E+00  0.00000000E+00  0.00000000E+00  2.92879242E-01  6.35905363E-01
  0.00000000E+00  0.00000000E+00  0.00000000E+00  1.92254877E-02  4.17427708E-02
  0.00000000E+00 -3.27791828E-02 -7.11708296E-02  0.00000000E+00  0.00000000E+00
  0.00000000E+00  0.00000000E+00  0.00000000E+00 -2.92879069E-01 -6.35904991E-01
  0.00000000E+00  0.00000000E+00  0.00000000E+00  4.17427043E-02 -1.92254537E-02
  0.00000000E+00 -7.11707413E-02  3.27791430E-02  0.00000000E+00  0.00000000E+00
  0.00000000E+00  0.00000000E+00  0.00000000E+00  6.35905408E-01 -2.92879262E-01
  0.00000000E+00  0.00000000E+00  0.00000000E+00  4.17427003E-02 -1.92254537E-02
  0.00000000E+00 -7.11708493E-02  3.27791910E-02  0.00000000E+00  0.00000000E+00
  0.00000000E+00  0.00000000E+00  0.00000000E+00 -6.35904947E-01  2.92879050E-01
 -9.35357441E-09 -3.45553907E-09  3.50195521E-08  0.00000000E+00  0.00000000E+00
 -1.98789402E-08  0.00000000E+00  0.00000000E+00 -8.07041741E-09  5.76176360E-01
 -5.76176358E-01 -2.45226299E-08  2.37412374E-01  0.00000000E+00  0.00000000E+00
 -1.14352105E-08 -2.79252458E-08  3.25332511E-08  0.00000000E+00  0.00000000E+00
 -9.76344525E-09  0.00000000E+00  0.00000000E+00 -1.00537886E-08  5.76173078E-01
 -5.76173094E-01 -2.09272955E-08  2.37411031E-01  0.00000000E+00  0.00000000E+00
  2.35150928E-08  3.79536216E-09 -9.50058366E-08  0.00000000E+00  0.00000000E+00
  3.07510985E-08  0.00000000E+00  0.00000000E+00  1.38983539E-08 -2.05605148E-01
  2.05605145E-01  6.23179070E-08  6.65311152E-01  0.00000000E+00  0.00000000E+00
  3.09720508E-08  8.33058668E-08 -8.24024654E-08  0.00000000E+00  0.00000000E+00
  1.55440757E-08  0.00000000E+00  0.00000000E+00  2.47731871E-08 -2.05603963E-01
  2.05604005E-01  5.67338238E-08  6.65307372E-01  0.00000000E+00  0.00000000E+00
 -1.32841417E-08 -9.54344323E-09  5.71492630E-08  0.00000000E+00  0.00000000E+00
 -6.05648360E-09  0.00000000E+00  0.00000000E+00  2.81360971E-09 -2.36013276E-01
  2.36013259E-01 -7.05433314E-09 -6.53246326E-01  0.00000000E+00  0.00000000E+00
  1.38479723E-08  3.54728949E-08 -4.11324040E-08  0.00000000E+00  0.00000000E+00
  3.46380794E-08  0.00000000E+00  0.00000000E+00  2.25852863E-08  2.36014604E-01
 -2.36014592E-01  3.16994688E-08  6.53250023E-01  0.00000000E+00  0.00000000E+00
 -2.67981699E-08 -2.00958880E-08  1.12499320E-07  0.00000000E+00  0.00000000E+00
 -1.17700398E-08  0.00000000E+00  0.00000000E+00  5.87998400E-09  5.65727896E-01
 -5.65727931E-01 -1.20304199E-08 -2.72524647E-01  0.00000000E+00  0.00000000E+00
  2.59771019E-08  7.07831017E-08 -7.65267311E-08  0.00000000E+00  0.00000000E+00
  6.86108980E-08  0.00000000E+00  0.00000000E+00  4.47839471E-08 -5.65731103E-01
  5.65731126E-01  6.36519502E-08  2.72526183E-01  0.00000000E+00  0.00000000E+00
  0.00000000E+00  0.00000000E+00  0.00000000E+00 -6.79674889E-02  3.19549767E-02
  0.00000000E+00  1.17207906E-01 -5.51054056E-02  0.00000000E+00  0.00000000E+00
  0.00000000E+00  0.00000000E+00  0.00000000E+00  6.48441263E-01 -3.04865261E-01
  0.00000000E+00  0.00000000E+00  0.00000000E+00  6.79675397E-02 -3.19549996E-02
  0.00000000E+00 -1.17207856E-01  5.51053820E-02  0.00000000E+00  0.00000000E+00
  0.00000000E+00  0.00000000E+00  0.00000000E+00  6.48441713E-01 -3.04865471E-01
  0.00000000E+00  0.00000000E+00  0.00000000E+00 -3.19550511E-02 -6.79676581E-02
  0.00000000E+00  5.51053876E-02  1.17207862E-01  0.00000000E+00  0.00000000E+00
  0.00000000E+00  0.00000000E+00  0.00000000E+00  3.04865279E-01  6.48441304E-01
  0.00000000E+00  0.00000000E+00  0.00000000E+00  3.19550512E-02  6.79676506E-02
  0.00000000E+00 -5.51053777E-02 -1.17207846E-01  0.00000000E+00  0.00000000E+00
  0.00000000E+00  0.00000000E+00  0.00000000E+00  3.04865451E-01  6.48441666E-01
  2.26944086E-01  4.43201126E-01 -8.51389865E-01  0.00000000E+00  0.00000000E+00
  1.82415125E-01  0.00000000E+00  0.00000000E+00 -6.69727461E-01  4.22329500E-01
  4.22329523E-01 -7.29890245E-01  1.55192564E-08  0.00000000E+00  0.00000000E+00
 -2.26944083E-01 -4.43201085E-01  8.51389880E-01  0.00000000E+00  0.00000000E+00
  1.82415280E-01  0.00000000E+00  0.00000000E+00 -6.69727422E-01 -4.22329549E-01
 -4.22329551E-01  7.29890383E-01 -2.42940161E-09  0.00000000E+00  0.00000000E+00
  2.15954896E-01  1.09114977E+00  9.85785020E-01  0.00000000E+00  0.00000000E+00
 -3.85275687E-02  0.00000000E+00  0.00000000E+00  7.39880101E-03 -9.55399464E-01
 -9.55399458E-01 -9.03200826E-01  4.28857754E-09  0.00000000E+00  0.00000000E+00
  2.15954821E-01  1.09114914E+00  9.85784063E-01  0.00000000E+00  0.00000000E+00
  3.85276175E-02  0.00000000E+00  0.00000000E+00 -7.39858366E-03 -9.55398834E-01
 -9.55398820E-01 -9.03200279E-01  9.49284812E-09  0.00000000E+00  0.00000000E+00
 -1.21502775E-01 -9.45562902E-01 -1.50489330E+00  0.00000000E+00  0.00000000E+00
  5.79714649E-02  0.00000000E+00  0.00000000E+00 -3.24954467E-01  1.04140103E+00
  1.04140103E+00  8.84716622E-01 -4.04195302E-09  0.00000000E+00  0.00000000E+00
  1.21502912E-01  9.45563544E-01  1.50489387E+00  0.00000000E+00  0.00000000E+00
  5.79715250E-02  0.00000000E+00  0.00000000E+00 -3.24954468E-01 -1.04140162E+00
 -1.04140161E+00 -8.84717168E-01  8.99061255E-09  0.00000000E+00  0.00000000E+00
Orthonormal basis                          R   N=         900
  1.28694505E-02  1.66767688E-01  1.99887988E-01  2.92437474E-17  0.00000000E+00
  3.19870653E-02  2.63521644E-18 -1.25546203E-18  9.08380647E-02  1.38171048E-01
  1.38171048E-01  1.52885946E-01  3.70392585E-29  4.73509924E-20 -1.00009199E-19
  1.28694505E-02  1.66767688E-01  1.99887988E-01  3.94818546E-19 -7.79425586E-19
 -3.19870653E-02  6.68954845E-19 -9.58753454E-19 -9.08380647E-02  1.38171048E-01
  1.38171048E-01  1.52885946E-01  2.35605850E-31 -1.02773536E-19  1.10384794E-19
  1.15068034E-02  1.95516878E-01  1.90345821E-01  6.22940445E-17  0.00000000E+00
 -2.16876050E-02 -8.85597210E-18  1.61075877E-18 -7.30873643E-02  1.63062011E-01
  1.63062011E-01  1.54377415E-01 -1.10656452E-31 -4.71579137E-20  7.83996729E-21
 -1.15068034E-02 -1.95516878E-01 -1.90345821E-01 -4.97714413E-19  8.02673861E-20
 -2.16876050E-02 -1.42466771E-18  2.42857665E-19 -7.30873643E-02 -1.63062011E-01
 -1.63062011E-01 -1.54377415E-01 -8.60807242E-34  3.18453005E-19 -5.20606014E-20
  1.22423971E-02 -8.47737481E-02 -4.26291012E-02  3.06314183E-16 -1.63367564E-16
  3.13538934E-01  1.88145170E-16 -1.77294812E-16  3.91137467E-01 -6.90328944E-02
 -6.90328944E-02 -2.60432813E-02  0.00000000E+00  8.51092381E-18 -7.63020615E-18
  1.22423971E-02 -8.47737481E-02 -4.26291012E-02  6.94813882E-17 -6.24056405E-17
 -3.13538934E-01  9.86779475E-17 -8.89248495E-17 -3.91137467E-01 -6.90328944E-02
 -6.90328944E-02 -2.60432813E-02  4.55223264E-30 -1.68304990E-17  1.49971027E-17
  5.66792609E-18 -5.81835216E-17 -4.63659319E-17 -1.18258807E-01  3.30764377E-01
  2.18816795E-16 -1.40649801E-01  3.93390943E-01  2.33133577E-16  2.01398874E-17
 -2.48730918E-17 -3.83781823E-18 -8.76901366E-18 -1.52545700E-02  4.26663218E-02
  1.31055457E-16 -8.28060910E-17  1.56942209E-17 -1.18258807E-01  3.30764377E-01
 -1.00984768E-16 -1.40649801E-01  3.93390943E-01 -1.63781619E-16 -5.80631407E-17
 -6.34378247E-17 -1.93049942E-18  4.88117794E-20  1.52545700E-02 -4.26663218E-02
 -3.22008296E-17 -8.53095688E-17  7.66955410E-17  3.30764377E-01  1.18258807E-01
 -1.52055959E-16  3.93390943E-01  1.40649801E-01 -1.84171376E-16  1.34074878E-16
 -7.28504591E-17 -7.40121656E-17  1.18243050E-16  4.26663218E-02  1.52545700E-02
  7.25450429E-17  9.34775486E-17  5.24914978E-17  3.30764377E-01  1.18258807E-01
  2.60342900E-17  3.93390943E-01  1.40649801E-01  2.30994462E-17 -1.15217973E-16
  1.85764335E-16  3.90927150E-17  1.59233480E-17 -4.26663218E-02 -1.52545700E-02
  5.84367542E-18  9.71448312E-18 -4.12898366E-17 -2.00147233E-01  4.09602781E-01
  1.97786534E-16 -1.66733785E-01  3.41221915E-01  2.13354210E-16  2.49373587E-16
 -1.48858733E-16 -2.87164016E-17  1.55193478E-16  2.80899820E-02 -5.74863542E-02
  2.22842566E-16 -8.10926010E-17  1.04559260E-17  2.00147233E-01 -4.09602781E-01
  9.77810035E-17  1.66733785E-01 -3.41221915E-01  1.32772400E-17 -2.23881482E-16
  4.55109700E-17 -1.53918263E-17 -2.99446591E-16  2.80899820E-02 -5.74863542E-02
 -2.93406465E-17 -1.74913545E-16  5.94972975E-17  4.09602781E-01  2.00147233E-01
 -1.99841104E-16  3.41221915E-01  1.66733785E-01 -2.26142539E-16 -1.78419000E-17
  6.70752860E-17 -4.92438007E-17 -1.02066213E-16 -5.74863542E-02 -2.80899820E-02
  6.48312808E-17  9.71394885E-17  7.79873435E-17 -4.09602781E-01 -2.00147233E-01
 -4.35953989E-17 -3.41221915E-01 -1.66733785E-01 -1.33138329E-16 -3.15724077E-17
  1.32405607E-16  4.61042339E-17 -4.02148114E-19 -5.74863542E-02 -2.80899820E-02
 -2.09817364E-01  1.36637687E-01 -4.47571006E-02  2.03625751E-16 -1.27266094E-16
  5.16716788E-01  2.88503533E-16 -1.31823230E-16  2.82105009E-01  6.41109384E-02
  6.41109384E-02 -3.15122233E-02  1.94192649E-22 -1.54245506E-17  9.89616556E-18
  2.09817364E-01 -1.36637687E-01  4.47571006E-02 -1.42676850E-16  8.14761208E-17
  5.16716788E-01 -6.95930328E-17  3.50222159E-17  2.82105009E-01 -6.41109384E-02
 -6.41109384E-02  3.15122233E-02  3.94279652E-25 -1.08609635E-16  3.50098936E-17
  6.25365522E-01 -2.08001248E-01  1.13034377E-01  1.97394198E-17 -1.64495165E-16
 -3.86739437E-02 -6.91250019E-17 -2.48011600E-16 -1.53033679E-02  1.34328698E-02
  1.34328698E-02  1.93653472E-02  1.60639810E-21  2.10105536E-18  9.31375108E-18
  6.25365522E-01 -2.08001248E-01  1.13034377E-01  1.14563847E-17  1.00607235E-16
  3.86739437E-02  7.71121292E-18  2.76437661E-17  1.53033679E-02  1.34328698E-02
  1.34328698E-02  1.93653472E-02  6.80772609E-24  9.24706859E-18  3.92503288E-17
  5.95153344E-01 -1.60111737E-01  9.74368813E-02 -1.32581827E-17  1.06065461E-16
  2.32434562E-01  1.22203270E-16  1.41996222E-16  8.57080212E-02  5.31040188E-02
  5.31040188E-02 -6.72653979E-04  0.00000000E+00  3.94074405E-18 -8.76202912E-18
 -5.95153344E-01  1.60111737E-01 -9.74368813E-02 -5.35241062E-17 -6.70820533E-17