Title section
Stability RHF                                                         CC-pVDZ
Number of atoms                            I                2
Info1-9                                    I   N=           9
          13          12           0           0           0         110
           7           1           2
Full Title                                 C   N=           2
Title section
Route                                      C   N=          11
#p int=(nobasistransform) nosymm pop=full punch=gamessinput
gfprint uhf/cc-pvdz 6D 10F guess=mix SCF=(xqc, maxcycle=500)
 stable=opt
Charge                                     I                0
Multiplicity                               I                1
Number of electrons                        I               14
Number of alpha electrons                  I                7
Number of beta electrons                   I                7
Number of basis functions                  I               30
Number of independent functions            I               30
Number of point charges in /Mol/           I                0
Number of translation vectors              I                0
Atomic numbers                             I   N=           2
           7           7
Nuclear charges                            R   N=           2
  7.00000000E+00  7.00000000E+00
Current cartesian coordinates              R   N=           6
  0.00000000E+00  0.00000000E+00  0.00000000E+00  0.00000000E+00  0.00000000E+00
  4.72431531E+00
Number of symbols in /Mol/                 I                0
Force Field                                I                0
Atom Types                                 C   N=           2

Int Atom Types                             I   N=           2
           0           0
MM charges                                 R   N=           2
  0.00000000E+00  0.00000000E+00
Integer atomic weights                     I   N=           2
          14          14
Real atomic weights                        R   N=           2
  1.40030740E+01  1.40030740E+01
Atom fragment info                         I   N=           2
           0           0
Atom residue num                           I   N=           2
           0           0
Nuclear spins                              I   N=           2
           2           2
Nuclear ZEff                               R   N=           2
 -4.55000000E+00 -4.55000000E+00
Nuclear ZNuc                               R   N=           2
  7.00000000E+00  7.00000000E+00
Nuclear QMom                               R   N=           2
  2.04400000E+00  2.04400000E+00
Nuclear GFac                               R   N=           2
  4.03761000E-01  4.03761000E-01
MicOpt                                     I   N=           2
          -1          -1
Number of residues                         I                0
Number of secondary structures             I                0
Number of contracted shells                I               12
Number of primitive shells                 I               44
Pure/Cartesian d shells                    I                1
Pure/Cartesian f shells                    I                1
Highest angular momentum                   I                2
Largest degree of contraction              I                8
Shell types                                I   N=          12
           0           0           0           1           1           2
           0           0           0           1           1           2
Number of primitives per shell             I   N=          12
           8           8           1           3           1           1
           8           8           1           3           1           1
Shell to atom map                          I   N=          12
           1           1           1           1           1           1
           2           2           2           2           2           2
Primitive exponents                        R   N=          44
  9.04600000E+03  1.35700000E+03  3.09300000E+02  8.77300000E+01  2.85600000E+01
  1.02100000E+01  3.83800000E+00  7.46600000E-01  9.04600000E+03  1.35700000E+03
  3.09300000E+02  8.77300000E+01  2.85600000E+01  1.02100000E+01  3.83800000E+00
  7.46600000E-01  2.24800000E-01  1.35500000E+01  2.91700000E+00  7.97300000E-01
  2.18500000E-01  8.17000000E-01  9.04600000E+03  1.35700000E+03  3.09300000E+02
  8.77300000E+01  2.85600000E+01  1.02100000E+01  3.83800000E+00  7.46600000E-01
  9.04600000E+03  1.35700000E+03  3.09300000E+02  8.77300000E+01  2.85600000E+01
  1.02100000E+01  3.83800000E+00  7.46600000E-01  2.24800000E-01  1.35500000E+01
  2.91700000E+00  7.97300000E-01  2.18500000E-01  8.17000000E-01
Contraction coefficients                   R   N=          44
  6.99617413E-04  5.38605463E-03  2.73910212E-02  1.03150592E-01  2.78570663E-01
  4.48294849E-01  2.78085928E-01  1.54315612E-02 -3.04990096E-04 -2.40802638E-03
 -1.19444487E-02 -4.89259929E-02 -1.34472725E-01 -3.15112578E-01 -2.42857833E-01
  1.09438221E+00  1.00000000E+00  5.89056768E-02  3.20461107E-01  7.53042062E-01
  1.00000000E+00  1.00000000E+00  6.99617413E-04  5.38605463E-03  2.73910212E-02
  1.03150592E-01  2.78570663E-01  4.48294849E-01  2.78085928E-01  1.54315612E-02
 -3.04990096E-04 -2.40802638E-03 -1.19444487E-02 -4.89259929E-02 -1.34472725E-01
 -3.15112578E-01 -2.42857833E-01  1.09438221E+00  1.00000000E+00  5.89056768E-02
  3.20461107E-01  7.53042062E-01  1.00000000E+00  1.00000000E+00
Coordinates of each shell                  R   N=          36
  0.00000000E+00  0.00000000E+00  0.00000000E+00  0.00000000E+00  0.00000000E+00
  0.00000000E+00  0.00000000E+00  0.00000000E+00  0.00000000E+00  0.00000000E+00
  0.00000000E+00  0.00000000E+00  0.00000000E+00  0.00000000E+00  0.00000000E+00
  0.00000000E+00  0.00000000E+00  0.00000000E+00  0.00000000E+00  0.00000000E+00
  4.72431531E+00  0.00000000E+00  0.00000000E+00  4.72431531E+00  0.00000000E+00
  0.00000000E+00  4.72431531E+00  0.00000000E+00  0.00000000E+00  4.72431531E+00
  0.00000000E+00  0.00000000E+00  4.72431531E+00  0.00000000E+00  0.00000000E+00
  4.72431531E+00
Num ILSW                                   I              100
ILSW                                       I   N=         100
           0           1           0           0           2           1
           0           0           0           0           0          -1
           5           0           0           1           0           0
           0           0           0           0           0           0
           1           1           0           0           0           0
           0           0      100000           0          -1           0
           0           0           0           0           0           0
           0           0           0           1           0           0
           0 -2000000000           1           0           0           0
           0           0           4          52           0           0
           0           0           0           0           0           0
           0           0           0           2           0           1
           0           0           0           0           0           0
           0           0           0           0           0           0
           0           0           0           0           0           0
           0           0           0           0           0           0
           0           0           0           0
Num RLSW                                   I               52
RLSW                                       R   N=          52
  1.00000000E+00  1.00000000E+00  1.00000000E+00  1.00000000E+00  1.00000000E+00
  0.00000000E+00  0.00000000E+00  1.00000000E+00  0.00000000E+00  0.00000000E+00
  0.00000000E+00  0.00000000E+00  1.00000000E+00  0.00000000E+00  0.00000000E+00
  0.00000000E+00  0.00000000E+00  1.00000000E+00  0.00000000E+00  0.00000000E+00
  0.00000000E+00  0.00000000E+00  1.00000000E+00  0.00000000E+00  0.00000000E+00
  0.00000000E+00  0.00000000E+00  1.00000000E+00  0.00000000E+00  0.00000000E+00
  0.00000000E+00  0.00000000E+00  1.00000000E+00  0.00000000E+00  0.00000000E+00
  0.00000000E+00  0.00000000E+00  0.00000000E+00  1.00000000E+00  1.00000000E+00
  0.00000000E+00  1.00000000E+00  0.00000000E+00  0.00000000E+00  0.00000000E+00
  0.00000000E+00  0.00000000E+00  0.00000000E+00  0.00000000E+00  0.00000000E+00
  0.00000000E+00  0.00000000E+00
MxBond                                     I                1
NBond                                      I   N=           2
           0           0
IBond                                      I   N=           2
           0           0
RBond                                      R   N=           2
  0.00000000E+00  0.00000000E+00
Virial Ratio                               R      2.000324934022770E+00
SCF Energy                                 R     -1.087800170109913E+02
Total Energy                               R     -1.087800170109913E+02
S**2                                       R      2.965347663750292E+00
S**2 after annihilation                    R      8.384435830024604E+00
RMS Density                                R      3.980526689413751E-09
Job Status                                 I                1
Nuclear derivative order                   I                0
External E-field                           R   N=          35
  0.00000000E+00  0.00000000E+00  0.00000000E+00  0.00000000E+00  0.00000000E+00
  0.00000000E+00  0.00000000E+00  0.00000000E+00  0.00000000E+00  0.00000000E+00
  0.00000000E+00  0.00000000E+00  0.00000000E+00  0.00000000E+00  0.00000000E+00
  0.00000000E+00  0.00000000E+00  0.00000000E+00  0.00000000E+00  0.00000000E+00
  0.00000000E+00  0.00000000E+00  0.00000000E+00  0.00000000E+00  0.00000000E+00
  0.00000000E+00  0.00000000E+00  0.00000000E+00  0.00000000E+00  0.00000000E+00
  0.00000000E+00  0.00000000E+00  0.00000000E+00  0.00000000E+00  0.00000000E+00
IOpCl                                      I                0
IROHF                                      I                0
Alpha Orbital Energies                     R   N=          30
 -1.56690146E+01 -1.55816729E+01 -1.15895958E+00 -7.32717420E-01 -5.64615681E-01
 -5.64615676E-01 -5.57905764E-01  1.65978894E-01  1.65978894E-01  1.78225590E-01
  8.35656622E-01  8.74987896E-01  8.74987899E-01  8.86015359E-01  1.04141911E+00
  1.10696981E+00  1.10696981E+00  1.29017951E+00  1.94633010E+00  1.94633010E+00
  1.94970574E+00  1.94970574E+00  1.98333037E+00  2.16041940E+00  2.16041940E+00
  2.16346871E+00  2.16346871E+00  2.25672937E+00  3.77488554E+00  3.92049186E+00
Alpha MO coefficients                      R   N=         900
  7.18562758E-01  8.14705977E-04 -3.70111326E-04  0.00000000E+00  0.00000000E+00
  3.96204525E-05  0.00000000E+00  0.00000000E+00 -4.38926020E-05 -1.13936756E-03
 -1.13936744E-03 -1.12480338E-03  0.00000000E+00  0.00000000E+00  0.00000000E+00
  6.96380139E-01  7.87431386E-04 -3.48972941E-04  0.00000000E+00  0.00000000E+00
 -3.44300597E-05  0.00000000E+00  0.00000000E+00  3.76986572E-05 -1.10706639E-03
 -1.10706644E-03 -1.09025669E-03  0.00000000E+00  0.00000000E+00  0.00000000E+00
 -6.96440827E-01 -8.57697593E-04  6.68492642E-04  0.00000000E+00  0.00000000E+00
 -1.64586791E-04  0.00000000E+00  0.00000000E+00  1.96799989E-04  1.01279009E-03
  1.01279021E-03  1.08468043E-03  0.00000000E+00  0.00000000E+00  0.00000000E+00
  7.18621578E-01  8.82824470E-04 -6.79763624E-04  0.00000000E+00  0.00000000E+00
 -1.65726398E-04  0.00000000E+00  0.00000000E+00  1.98084831E-04 -1.04800884E-03
 -1.04800879E-03 -1.11940853E-03  0.00000000E+00  0.00000000E+00  0.00000000E+00
  7.31348886E-04  3.51929421E-01  3.99918237E-01  0.00000000E+00  0.00000000E+00
  2.33110529E-03  0.00000000E+00  0.00000000E+00  9.80092159E-04 -1.35032526E-03
 -1.35032549E-03  4.97600649E-04 -2.14247015E-10  0.00000000E+00  0.00000000E+00
  7.31404925E-04  3.51925656E-01  3.99913522E-01  0.00000000E+00  0.00000000E+00
 -2.33058280E-03  0.00000000E+00  0.00000000E+00 -9.79945471E-04 -1.35031942E-03
 -1.35031808E-03  4.97620234E-04  1.14836943E-09  0.00000000E+00  0.00000000E+00
 -2.37338323E-03 -3.65183516E-01 -4.13127206E-01  0.00000000E+00  0.00000000E+00
  1.17690098E-02  0.00000000E+00  0.00000000E+00  7.49280640E-03 -3.20079355E-06
 -3.19979811E-06  1.82163810E-03  9.22204594E-10  0.00000000E+00  0.00000000E+00
  2.37344322E-03  3.65187486E-01  4.13131464E-01  0.00000000E+00  0.00000000E+00
  1.17698181E-02  0.00000000E+00  0.00000000E+00  7.49306817E-03  3.17204193E-06
  3.17194046E-06 -1.82167370E-03  2.70039151E-10  0.00000000E+00  0.00000000E+00
 -1.56632600E-03 -2.40279192E-02 -3.14796952E-02  0.00000000E+00  0.00000000E+00
  4.41648249E-01  0.00000000E+00  0.00000000E+00  3.21492477E-01 -2.51124469E-03
 -2.51123688E-03  4.40914702E-03  1.05229799E-08  0.00000000E+00  0.00000000E+00
 -1.56648108E-03 -2.40278103E-02 -3.14785678E-02  0.00000000E+00  0.00000000E+00
 -4.41648241E-01  0.00000000E+00  0.00000000E+00 -3.21492471E-01 -2.51132953E-03
 -2.51133668E-03  4.40919828E-03 -5.11105791E-09  0.00000000E+00  0.00000000E+00
  0.00000000E+00  0.00000000E+00  0.00000000E+00  2.25497786E-01  4.07208277E-01
  0.00000000E+00  1.60338670E-01  2.89542681E-01  0.00000000E+00  0.00000000E+00
  0.00000000E+00  0.00000000E+00  0.00000000E+00  8.38856642E-04  1.51482360E-03
  0.00000000E+00  0.00000000E+00  0.00000000E+00  2.25497793E-01  4.07208291E-01
  0.00000000E+00  1.60338673E-01  2.89542688E-01  0.00000000E+00  0.00000000E+00
  0.00000000E+00  0.00000000E+00  0.00000000E+00 -8.38826329E-04 -1.51476886E-03
  0.00000000E+00  0.00000000E+00  0.00000000E+00  4.07208273E-01 -2.25497783E-01
  0.00000000E+00  2.89542686E-01 -1.60338672E-01  0.00000000E+00  0.00000000E+00
  0.00000000E+00  0.00000000E+00  0.00000000E+00  1.51482085E-03 -8.38855117E-04
  0.00000000E+00  0.00000000E+00  0.00000000E+00  4.07208287E-01 -2.25497791E-01
  0.00000000E+00  2.89542692E-01 -1.60338675E-01  0.00000000E+00  0.00000000E+00
  0.00000000E+00  0.00000000E+00  0.00000000E+00 -1.51477094E-03  8.38827479E-04
  0.00000000E+00  0.00000000E+00  0.00000000E+00 -4.24578021E-01  2.35116547E-01
  0.00000000E+00 -2.89676018E-01  1.60412507E-01  0.00000000E+00  0.00000000E+00
  0.00000000E+00  0.00000000E+00  0.00000000E+00  3.19187625E-04 -1.76755011E-04
  0.00000000E+00  0.00000000E+00  0.00000000E+00  4.24578531E-01 -2.35116829E-01
  0.00000000E+00  2.89675459E-01 -1.60412198E-01  0.00000000E+00  0.00000000E+00
  0.00000000E+00  0.00000000E+00  0.00000000E+00  3.19258447E-04 -1.76794228E-04
  0.00000000E+00  0.00000000E+00  0.00000000E+00 -2.35116541E-01 -4.24578012E-01
  0.00000000E+00 -1.60412512E-01 -2.89676027E-01  0.00000000E+00  0.00000000E+00
  0.00000000E+00  0.00000000E+00  0.00000000E+00  1.76751279E-04  3.19180890E-04
  0.00000000E+00  0.00000000E+00  0.00000000E+00  2.35116843E-01  4.24578557E-01
  0.00000000E+00  1.60412182E-01  2.89675431E-01  0.00000000E+00  0.00000000E+00
  0.00000000E+00  0.00000000E+00  0.00000000E+00  1.76795304E-04  3.19260390E-04
 -1.04487061E-03  2.77355452E-02  5.08654869E-02  0.00000000E+00  0.00000000E+00
  5.14830718E-01  0.00000000E+00  0.00000000E+00  3.45416489E-01  1.17753422E-03
  1.17753566E-03 -1.58171513E-03  1.34829516E-09  0.00000000E+00  0.00000000E+00
  1.04533202E-03 -2.77347594E-02 -5.08670922E-02  0.00000000E+00  0.00000000E+00
  5.14830954E-01  0.00000000E+00  0.00000000E+00  3.45416221E-01 -1.17744829E-03
 -1.17744826E-03  1.58164366E-03  1.77504833E-11  0.00000000E+00  0.00000000E+00
 -3.75821676E-01 -8.38244064E-01  1.18499072E+00  0.00000000E+00  0.00000000E+00
 -1.80342380E-01  0.00000000E+00  0.00000000E+00  8.96502975E-02 -2.04676555E-01
 -2.04676555E-01 -1.62699785E-01 -2.69311015E-10  0.00000000E+00  0.00000000E+00
 -3.75821168E-01 -8.38242976E-01  1.18498909E+00  0.00000000E+00  0.00000000E+00
  1.80343152E-01  0.00000000E+00  0.00000000E+00 -8.96502140E-02 -2.04676357E-01
 -2.04676357E-01 -1.62699568E-01  8.41500488E-11  0.00000000E+00  0.00000000E+00
  0.00000000E+00  0.00000000E+00  0.00000000E+00 -3.18946749E-01 -5.98000509E-01
  0.00000000E+00  3.36613021E-01  6.31123403E-01  0.00000000E+00  0.00000000E+00
  0.00000000E+00  0.00000000E+00  0.00000000E+00  8.76446673E-03  1.64326980E-02
  0.00000000E+00  0.00000000E+00  0.00000000E+00 -3.18945918E-01 -5.97998952E-01
  0.00000000E+00  3.36612437E-01  6.31122309E-01  0.00000000E+00  0.00000000E+00
  0.00000000E+00  0.00000000E+00  0.00000000E+00 -8.76447197E-03 -1.64327077E-02
  0.00000000E+00  0.00000000E+00  0.00000000E+00 -5.98000498E-01  3.18946743E-01
  0.00000000E+00  6.31123409E-01 -3.36613024E-01  0.00000000E+00  0.00000000E+00
  0.00000000E+00  0.00000000E+00  0.00000000E+00  1.64326979E-02 -8.76446672E-03
  0.00000000E+00  0.00000000E+00  0.00000000E+00 -5.97998969E-01  3.18945928E-01
  0.00000000E+00  6.31122300E-01 -3.36612432E-01  0.00000000E+00  0.00000000E+00
  0.00000000E+00  0.00000000E+00  0.00000000E+00 -1.64327075E-02  8.76447185E-03
 -3.13004048E-01 -6.85113097E-01  1.00047737E+00  0.00000000E+00  0.00000000E+00
  4.24490335E-01  0.00000000E+00  0.00000000E+00 -5.18536895E-01 -1.58901134E-01
 -1.58901134E-01 -1.57101429E-01  3.41655084E-10  0.00000000E+00  0.00000000E+00
  3.13003968E-01  6.85112942E-01 -1.00047705E+00  0.00000000E+00  0.00000000E+00
  4.24487292E-01  0.00000000E+00  0.00000000E+00 -5.18534318E-01  1.58901185E-01
  1.58901185E-01  1.57101276E-01  1.53246691E-10  0.00000000E+00  0.00000000E+00
  1.23882185E-01  2.42947691E-01 -4.62415593E-01  0.00000000E+00  0.00000000E+00
 -6.72821811E-01  0.00000000E+00  0.00000000E+00  6.45746430E-01  6.01247425E-02
  6.01247416E-02  9.26497342E-02 -1.17360222E-09  0.00000000E+00  0.00000000E+00
  1.23883587E-01  2.42950632E-01 -4.62420305E-01  0.00000000E+00  0.00000000E+00
  6.72822959E-01  0.00000000E+00  0.00000000E+00 -6.45748260E-01  6.01254938E-02
  6.01254946E-02  9.26504496E-02  5.82738765E-10  0.00000000E+00  0.00000000E+00
  0.00000000E+00  0.00000000E+00  0.00000000E+00  3.19579465E-01  6.01774791E-01
  0.00000000E+00 -3.79896938E-01 -7.15353849E-01  0.00000000E+00  0.00000000E+00
  0.00000000E+00  0.00000000E+00  0.00000000E+00  1.17404336E-02  2.21074811E-02
  0.00000000E+00  0.00000000E+00  0.00000000E+00 -3.19580074E-01 -6.01775937E-01
  0.00000000E+00  3.79897579E-01  7.15355056E-01  0.00000000E+00  0.00000000E+00
  0.00000000E+00  0.00000000E+00  0.00000000E+00  1.17404109E-02  2.21074384E-02
  0.00000000E+00  0.00000000E+00  0.00000000E+00  6.01774798E-01 -3.19579469E-01
  0.00000000E+00 -7.15353846E-01  3.79896936E-01  0.00000000E+00  0.00000000E+00
  0.00000000E+00  0.00000000E+00  0.00000000E+00  2.21074812E-02 -1.17404336E-02
  0.00000000E+00  0.00000000E+00  0.00000000E+00 -6.01775942E-01  3.19580076E-01
  0.00000000E+00  7.15355052E-01 -3.79897576E-01  0.00000000E+00  0.00000000E+00
  0.00000000E+00  0.00000000E+00  0.00000000E+00  2.21074385E-02 -1.17404110E-02
  3.38415014E-01  6.82857130E-01 -1.18830492E+00  0.00000000E+00  0.00000000E+00
  5.24251001E-01  0.00000000E+00  0.00000000E+00 -8.86605804E-01  7.88050134E-02
  7.88050137E-02  2.98984240E-01  3.33367687E-10  0.00000000E+00  0.00000000E+00
 -3.38415098E-01 -6.82857314E-01  1.18830518E+00  0.00000000E+00  0.00000000E+00
  5.24251430E-01  0.00000000E+00  0.00000000E+00 -8.86606064E-01 -7.88051258E-02
 -7.88051257E-02 -2.98984184E-01  3.17331615E-11  0.00000000E+00  0.00000000E+00
  2.78877191E-02  6.78280676E-02 -6.39602214E-02  0.00000000E+00  0.00000000E+00
  5.18207051E-02  0.00000000E+00  0.00000000E+00 -7.40665100E-02 -3.53969551E-01
 -3.53969549E-01  7.03315274E-01  2.72832859E-09  0.00000000E+00  0.00000000E+00
  2.78879975E-02  6.78286805E-02 -6.39610416E-02  0.00000000E+00  0.00000000E+00
 -5.18210092E-02  0.00000000E+00  0.00000000E+00  7.40672629E-02 -3.53968908E-01
 -3.53968909E-01  7.03314073E-01  3.41496181E-10  0.00000000E+00  0.00000000E+00
  0.00000000E+00  0.00000000E+00  0.00000000E+00  2.44905960E-02 -1.18183484E-02
  0.00000000E+00 -3.58724510E-02  1.73108532E-02  0.00000000E+00  0.00000000E+00
  0.00000000E+00  0.00000000E+00  0.00000000E+00  6.36221554E-01 -3.07019389E-01
  0.00000000E+00  0.00000000E+00  0.00000000E+00  2.44910848E-02 -1.18185839E-02
  0.00000000E+00 -3.58730845E-02  1.73111592E-02  0.00000000E+00  0.00000000E+00
  0.00000000E+00  0.00000000E+00  0.00000000E+00 -6.36213031E-01  3.07015277E-01
  0.00000000E+00  0.00000000E+00  0.00000000E+00  1.18183465E-02  2.44905930E-02
  0.00000000E+00 -1.73108543E-02 -3.58724527E-02  0.00000000E+00  0.00000000E+00
  0.00000000E+00  0.00000000E+00  0.00000000E+00  3.07019392E-01  6.36221559E-01
  0.00000000E+00  0.00000000E+00  0.00000000E+00  1.18185855E-02  2.44910874E-02
  0.00000000E+00 -1.73111585E-02 -3.58730834E-02  0.00000000E+00  0.00000000E+00
  0.00000000E+00  0.00000000E+00  0.00000000E+00 -3.07015274E-01 -6.36213026E-01
  8.76076097E-11  7.67037214E-11 -2.64304858E-10  0.00000000E+00  0.00000000E+00
 -5.43129165E-10  0.00000000E+00  0.00000000E+00 -2.05263989E-10 -6.12389914E-01
  6.12389914E-01 -5.75796124E-10 -1.23404643E-06  0.00000000E+00  0.00000000E+00
 -1.50755238E-10 -4.37390581E-10  0.00000000E+00  0.00000000E+00  0.00000000E+00
 -2.28857055E-10  0.00000000E+00  0.00000000E+00 -1.12235998E-10 -6.12287756E-01
  6.12287755E-01  1.69206040E-10 -1.23384092E-06  0.00000000E+00  0.00000000E+00
  1.14180811E-10  3.27121656E-10 -2.87841655E-10  0.00000000E+00  0.00000000E+00
 -2.69032736E-09  0.00000000E+00  0.00000000E+00 -1.13782727E-09 -1.06742844E-06
  1.07000337E-06 -2.33107223E-09  7.07126968E-01  0.00000000E+00  0.00000000E+00
 -2.17171970E-10 -9.08666592E-10  2.11123206E-10  0.00000000E+00  0.00000000E+00
  1.52861972E-09  0.00000000E+00  0.00000000E+00  4.40195941E-10 -1.06827864E-06
  1.06879582E-06 -7.31118155E-10  7.07008996E-01  0.00000000E+00  0.00000000E+00
 -2.61091107E-11 -6.82008606E-10 -6.47867366E-10  0.00000000E+00  0.00000000E+00
  6.45121874E-09  0.00000000E+00  0.00000000E+00  2.77889569E-09 -1.28996639E-06
  1.28831966E-06  1.35723224E-09 -7.07086602E-01  0.00000000E+00  0.00000000E+00
  0.00000000E+00 -3.23795154E-10 -3.40323626E-10  0.00000000E+00  0.00000000E+00
 -5.24368141E-09  0.00000000E+00  0.00000000E+00 -2.42437238E-09  1.28875603E-06
 -1.28995946E-06  8.27881523E-10  7.07204561E-01  0.00000000E+00  0.00000000E+00
 -2.84479679E-11  4.50908145E-10  5.17354132E-10  0.00000000E+00  0.00000000E+00
 -3.59775478E-09  0.00000000E+00  0.00000000E+00 -1.54558381E-09 -6.12354964E-01
  6.12354965E-01 -7.39186805E-10  1.48857373E-06  0.00000000E+00  0.00000000E+00
 -4.97152181E-11  1.86436010E-10  1.14599142E-10  0.00000000E+00  0.00000000E+00
  2.87302726E-09  0.00000000E+00  0.00000000E+00  1.31059970E-09  6.12457112E-01
 -6.12457111E-01 -6.17883337E-10 -1.48882251E-06  0.00000000E+00  0.00000000E+00
  0.00000000E+00  0.00000000E+00  0.00000000E+00 -9.42565350E-03 -3.50922889E-02
  0.00000000E+00  1.39476102E-02  5.19278193E-02  0.00000000E+00  0.00000000E+00
  0.00000000E+00  0.00000000E+00  0.00000000E+00  1.83556798E-01  6.83393339E-01
  0.00000000E+00  0.00000000E+00  0.00000000E+00  9.42555659E-03  3.50919318E-02
  0.00000000E+00 -1.39474894E-02 -5.19273679E-02  0.00000000E+00  0.00000000E+00
  0.00000000E+00  0.00000000E+00  0.00000000E+00  1.83559254E-01  6.83402473E-01
  0.00000000E+00  0.00000000E+00  0.00000000E+00 -3.50922862E-02  9.42565100E-03
  0.00000000E+00  5.19278209E-02 -1.39476117E-02  0.00000000E+00  0.00000000E+00
  0.00000000E+00  0.00000000E+00  0.00000000E+00  6.83393343E-01 -1.83556802E-01
  0.00000000E+00  0.00000000E+00  0.00000000E+00  3.50919321E-02 -9.42555693E-03
  0.00000000E+00 -5.19273681E-02  1.39474897E-02  0.00000000E+00  0.00000000E+00
  0.00000000E+00  0.00000000E+00  0.00000000E+00  6.83402469E-01 -1.83559250E-01
  1.27775981E-01  2.91645332E-01 -3.44882352E-01  0.00000000E+00  0.00000000E+00
  1.72627907E-01  0.00000000E+00  0.00000000E+00 -3.40119640E-01  3.40675655E-01
  3.40675654E-01 -7.09146790E-01 -1.06331803E-09  0.00000000E+00  0.00000000E+00
 -1.27775935E-01 -2.91645199E-01  3.44882302E-01  0.00000000E+00  0.00000000E+00
  1.72627982E-01  0.00000000E+00  0.00000000E+00 -3.40119532E-01 -3.40676317E-01
 -3.40676317E-01  7.09148015E-01 -6.18613539E-10  0.00000000E+00  0.00000000E+00
  2.27801371E-01  1.11149766E+00  9.64645830E-01  0.00000000E+00  0.00000000E+00
 -4.45684462E-03  0.00000000E+00  0.00000000E+00 -2.66664915E-02 -9.11864022E-01
 -9.11864022E-01 -9.52019025E-01  4.73043821E-11  0.00000000E+00  0.00000000E+00
  2.27800591E-01  1.11149256E+00  9.64639083E-01  0.00000000E+00  0.00000000E+00
  4.45639478E-03  0.00000000E+00  0.00000000E+00  2.66674442E-02 -9.11858747E-01
 -9.11858748E-01 -9.52014434E-01 -5.39078893E-11  0.00000000E+00  0.00000000E+00
 -1.55099544E-01 -9.96492601E-01 -1.28883502E+00  0.00000000E+00  0.00000000E+00
  6.81749904E-02  0.00000000E+00  0.00000000E+00 -1.98586549E-01  1.01749801E+00
  1.01749801E+00  8.90153191E-01 -5.25322466E-11  0.00000000E+00  0.00000000E+00
  1.55100737E-01  9.96498372E-01  1.28883993E+00  0.00000000E+00  0.00000000E+00
  6.81750196E-02  0.00000000E+00  0.00000000E+00 -1.98586443E-01 -1.01750271E+00
 -1.01750271E+00 -8.90158085E-01 -5.18494322E-11  0.00000000E+00  0.00000000E+00
Orthonormal basis                          R   N=         900
  1.24365768E-02  1.83204684E-01  2.04502403E-01  0.00000000E+00 -1.51327403E-17
  1.38035686E-02  2.21861973E-17 -1.44624697E-17  4.58729722E-02  1.52182939E-01
  1.52182939E-01  1.56446052E-01 -5.76901667E-27  2.57931331E-19 -3.12745974E-19
  1.24365768E-02  1.83204684E-01  2.04502403E-01  5.91973774E-18 -7.19308453E-18
 -1.38035686E-02  7.05690818E-18 -8.34615369E-18 -4.58729722E-02  1.52182939E-01
  1.52182939E-01  1.56446052E-01 -1.94369264E-30 -4.63953962E-19  6.03804321E-19
  1.17654600E-02  1.93466877E-01  1.97492559E-01  6.17511708E-17  0.00000000E+00
 -9.34029005E-03 -2.28482539E-17  5.16290719E-18 -3.47532456E-02  1.60681015E-01
  1.60681015E-01  1.58679176E-01  1.89153082E-27 -9.26534763E-20  1.02755805E-19
 -1.17654600E-02 -1.93466877E-01 -1.97492559E-01 -2.16829566E-18  2.36415640E-18
 -9.34029005E-03 -3.04816589E-18  2.75257376E-18 -3.47532456E-02 -1.60681015E-01
 -1.60681015E-01 -1.58679176E-01  6.37488515E-31  2.65520906E-19 -2.00305563E-19
  7.94066516E-03 -4.68196911E-02 -9.27012356E-03 -6.25393971E-17  1.66771726E-16
  3.20732864E-01  1.11850724E-17  9.07227871E-17  4.16881291E-01 -3.85285081E-02
 -3.85285081E-02 -9.26507349E-03  0.00000000E+00 -1.30844670E-19  6.94338572E-19
  7.94066516E-03 -4.68196911E-02 -9.27012356E-03 -3.22363102E-18  1.66612368E-17
 -3.20732864E-01 -6.45318299E-18  2.34524768E-17 -4.16881291E-01 -3.85285081E-02
 -3.85285081E-02 -9.26507349E-03  2.05663112E-30  9.31052293E-20 -2.86220898E-18
 -2.28198152E-17  6.89122048E-17  4.66997066E-17 -2.15919331E-01  3.13912114E-01
  2.26449418E-16 -2.34516903E-01  3.40950004E-01  1.65409693E-16 -3.67205724E-17
  2.40251378E-17 -1.78648886E-17  3.74859605E-18 -9.54517712E-03  1.38771583E-02
 -1.36559677E-16  1.16932250E-16 -5.87392446E-18 -2.15919331E-01  3.13912114E-01
  4.21635134E-16 -2.34516903E-01  3.40950004E-01  2.87114328E-16 -9.22984542E-18
  4.59935275E-17  2.60870816E-17  8.20705106E-20  9.54517712E-03 -1.38771583E-02
  3.48913891E-19  7.59029709E-18 -1.42461931E-17  3.13912114E-01  2.15919331E-01
  1.02195971E-16  3.40950004E-01  2.34516903E-01  5.31464813E-17  7.94560840E-18
  1.62291143E-17  4.65711747E-17  8.00738907E-17  1.38771583E-02  9.54517712E-03
 -1.76635210E-16 -8.58277009E-17 -2.05491624E-17  3.13912114E-01  2.15919331E-01
  2.16165114E-16  3.40950004E-01  2.34516903E-01  4.98717294E-17 -2.40867234E-16
  9.04730030E-17  2.34724617E-17 -1.24324844E-16 -1.38771583E-02 -9.54517712E-03
  1.11974274E-16 -1.12097986E-16  3.46569777E-17 -1.70193611E-01  3.93868205E-01
 -1.31836029E-15 -1.56472029E-01  3.62113223E-01 -8.89287119E-16 -1.75007083E-17
 -1.66292343E-16  4.28264757E-17  7.56654811E-18  7.80497805E-03 -1.80625622E-02
 -2.48526390E-16  2.13076160E-16 -9.44063139E-17  1.70193611E-01 -3.93868205E-01
 -1.10664217E-15  1.56472029E-01 -3.62113223E-01 -8.08818417E-16  1.21983808E-16
  1.10538298E-16 -1.34237637E-17 -5.13548303E-19  7.80497805E-03 -1.80625622E-02
  4.69699274E-19 -1.49945416E-17 -8.07775108E-17  3.93868205E-01  1.70193611E-01
  1.79591273E-16  3.62113223E-01  1.56472029E-01  1.07931803E-16  1.76660652E-16
 -1.00892974E-16  1.16262455E-16  3.51949444E-16 -1.80625622E-02 -7.80497805E-03
 -1.64356927E-16 -1.27499155E-16 -4.15109647E-17 -3.93868205E-01 -1.70193611E-01
  3.08299454E-16 -3.62113223E-01 -1.56472029E-01  2.67575861E-17  1.68482470E-16
 -2.66446923E-16 -4.12798009E-17 -4.64404960E-17 -1.80625622E-02 -7.80497805E-03
 -4.19135223E-02  5.21395865E-02 -1.56206509E-02 -6.18635417E-16  7.27806373E-16
  5.04349334E-01 -4.73313147E-16  5.00737740E-16  3.46850091E-01  3.56747312E-02
  3.56747312E-02 -7.61761811E-03  0.00000000E+00  3.19581821E-17 -5.89582881E-17
  4.19135223E-02 -5.21395865E-02  1.56206509E-02  6.98367089E-16 -1.30234056E-15
  5.04349334E-01  6.47063592E-16 -1.26249426E-15  3.46850091E-01 -3.56747312E-02
 -3.56747312E-02  7.61761811E-03 -8.55735546E-28  2.42530692E-17 -1.27438414E-17
  6.26594310E-01 -2.06677606E-01  1.13565941E-01  1.97452042E-17  1.09421340E-16
 -2.64311210E-02  6.10638638E-17  1.28262045E-16 -9.11126446E-03  1.47696998E-02
  1.47696998E-02  2.00357969E-02  3.21373766E-21 -6.84626929E-19 -5.36579037E-19
  6.26594310E-01 -2.06677606E-01  1.13565941E-01 -1.37162699E-17 -1.16607279E-17
  2.64311210E-02 -3.96003355E-18 -3.33152670E-19  9.11126446E-03  1.47696998E-02
  1.47696998E-02  2.00357969E-02  1.03035118E-24 -1.80763530E-17 -1.30185033E-17
  6.28649806E-01 -1.97478248E-01  1.09081112E-01 -2.63748334E-17 -1.45061583E-16
  5.91814677E-02 -9.40487053E-17 -1.98151323E-17  1.96115920E-02  2.53865739E-02
  2.53865739E-02  1.47624640E-02  3.21958415E-21  1.05159876E-18  8.57326324E-19
 -6.28649806E-01  1.97478248E-01 -1.09081112E-01  2.06751839E-17  1.81540826E-17