Title section
Stability RHF                                                         CC-pVDZ
Number of atoms                            I                2
Info1-9                                    I   N=           9
          13          12           0           0           0         110
           7           1           2
Full Title                                 C   N=           2
Title section
Route                                      C   N=          11
#p int=(nobasistransform) nosymm pop=full punch=gamessinput
gfprint uhf/cc-pvdz 6D 10F guess=mix SCF=(xqc, maxcycle=500)
 stable=opt
Charge                                     I                0
Multiplicity                               I                1
Number of electrons                        I               14
Number of alpha electrons                  I                7
Number of beta electrons                   I                7
Number of basis functions                  I               30
Number of independent functions            I               30
Number of point charges in /Mol/           I                0
Number of translation vectors              I                0
Atomic numbers                             I   N=           2
           7           7
Nuclear charges                            R   N=           2
  7.00000000E+00  7.00000000E+00
Current cartesian coordinates              R   N=           6
  0.00000000E+00  0.00000000E+00  0.00000000E+00  0.00000000E+00  0.00000000E+00
  5.80637249E+00
Number of symbols in /Mol/                 I                0
Force Field                                I                0
Atom Types                                 C   N=           2

Int Atom Types                             I   N=           2
           0           0
MM charges                                 R   N=           2
  0.00000000E+00  0.00000000E+00
Integer atomic weights                     I   N=           2
          14          14
Real atomic weights                        R   N=           2
  1.40030740E+01  1.40030740E+01
Atom fragment info                         I   N=           2
           0           0
Atom residue num                           I   N=           2
           0           0
Nuclear spins                              I   N=           2
           2           2
Nuclear ZEff                               R   N=           2
 -4.55000000E+00 -4.55000000E+00
Nuclear ZNuc                               R   N=           2
  7.00000000E+00  7.00000000E+00
Nuclear QMom                               R   N=           2
  2.04400000E+00  2.04400000E+00
Nuclear GFac                               R   N=           2
  4.03761000E-01  4.03761000E-01
MicOpt                                     I   N=           2
          -1          -1
Number of residues                         I                0
Number of secondary structures             I                0
Number of contracted shells                I               12
Number of primitive shells                 I               44
Pure/Cartesian d shells                    I                1
Pure/Cartesian f shells                    I                1
Highest angular momentum                   I                2
Largest degree of contraction              I                8
Shell types                                I   N=          12
           0           0           0           1           1           2
           0           0           0           1           1           2
Number of primitives per shell             I   N=          12
           8           8           1           3           1           1
           8           8           1           3           1           1
Shell to atom map                          I   N=          12
           1           1           1           1           1           1
           2           2           2           2           2           2
Primitive exponents                        R   N=          44
  9.04600000E+03  1.35700000E+03  3.09300000E+02  8.77300000E+01  2.85600000E+01
  1.02100000E+01  3.83800000E+00  7.46600000E-01  9.04600000E+03  1.35700000E+03
  3.09300000E+02  8.77300000E+01  2.85600000E+01  1.02100000E+01  3.83800000E+00
  7.46600000E-01  2.24800000E-01  1.35500000E+01  2.91700000E+00  7.97300000E-01
  2.18500000E-01  8.17000000E-01  9.04600000E+03  1.35700000E+03  3.09300000E+02
  8.77300000E+01  2.85600000E+01  1.02100000E+01  3.83800000E+00  7.46600000E-01
  9.04600000E+03  1.35700000E+03  3.09300000E+02  8.77300000E+01  2.85600000E+01
  1.02100000E+01  3.83800000E+00  7.46600000E-01  2.24800000E-01  1.35500000E+01
  2.91700000E+00  7.97300000E-01  2.18500000E-01  8.17000000E-01
Contraction coefficients                   R   N=          44
  6.99617413E-04  5.38605463E-03  2.73910212E-02  1.03150592E-01  2.78570663E-01
  4.48294849E-01  2.78085928E-01  1.54315612E-02 -3.04990096E-04 -2.40802638E-03
 -1.19444487E-02 -4.89259929E-02 -1.34472725E-01 -3.15112578E-01 -2.42857833E-01
  1.09438221E+00  1.00000000E+00  5.89056768E-02  3.20461107E-01  7.53042062E-01
  1.00000000E+00  1.00000000E+00  6.99617413E-04  5.38605463E-03  2.73910212E-02
  1.03150592E-01  2.78570663E-01  4.48294849E-01  2.78085928E-01  1.54315612E-02
 -3.04990096E-04 -2.40802638E-03 -1.19444487E-02 -4.89259929E-02 -1.34472725E-01
 -3.15112578E-01 -2.42857833E-01  1.09438221E+00  1.00000000E+00  5.89056768E-02
  3.20461107E-01  7.53042062E-01  1.00000000E+00  1.00000000E+00
Coordinates of each shell                  R   N=          36
  0.00000000E+00  0.00000000E+00  0.00000000E+00  0.00000000E+00  0.00000000E+00
  0.00000000E+00  0.00000000E+00  0.00000000E+00  0.00000000E+00  0.00000000E+00
  0.00000000E+00  0.00000000E+00  0.00000000E+00  0.00000000E+00  0.00000000E+00
  0.00000000E+00  0.00000000E+00  0.00000000E+00  0.00000000E+00  0.00000000E+00
  5.80637249E+00  0.00000000E+00  0.00000000E+00  5.80637249E+00  0.00000000E+00
  0.00000000E+00  5.80637249E+00  0.00000000E+00  0.00000000E+00  5.80637249E+00
  0.00000000E+00  0.00000000E+00  5.80637249E+00  0.00000000E+00  0.00000000E+00
  5.80637249E+00
Num ILSW                                   I              100
ILSW                                       I   N=         100
           0           1           0           0           2           1
           0           0           0           0           0          -1
           5           0           0           1           0           0
           0           0           0           0           0           0
           1           1           0           0           0           0
           0           0      100000           0          -1           0
           0           0           0           0           0           0
           0           0           0           1           0           0
           0 -2000000000           1           0           0           0
           0           0           4          52           0           0
           0           0           0           0           0           0
           0           0           0           2           0           1
           0           0           0           0           0           0
           0           0           0           0           0           0
           0           0           0           0           0           0
           0           0           0           0           0           0
           0           0           0           0
Num RLSW                                   I               52
RLSW                                       R   N=          52
  1.00000000E+00  1.00000000E+00  1.00000000E+00  1.00000000E+00  1.00000000E+00
  0.00000000E+00  0.00000000E+00  1.00000000E+00  0.00000000E+00  0.00000000E+00
  0.00000000E+00  0.00000000E+00  1.00000000E+00  0.00000000E+00  0.00000000E+00
  0.00000000E+00  0.00000000E+00  1.00000000E+00  0.00000000E+00  0.00000000E+00
  0.00000000E+00  0.00000000E+00  1.00000000E+00  0.00000000E+00  0.00000000E+00
  0.00000000E+00  0.00000000E+00  1.00000000E+00  0.00000000E+00  0.00000000E+00
  0.00000000E+00  0.00000000E+00  1.00000000E+00  0.00000000E+00  0.00000000E+00
  0.00000000E+00  0.00000000E+00  0.00000000E+00  1.00000000E+00  1.00000000E+00
  0.00000000E+00  1.00000000E+00  0.00000000E+00  0.00000000E+00  0.00000000E+00
  0.00000000E+00  0.00000000E+00  0.00000000E+00  0.00000000E+00  0.00000000E+00
  0.00000000E+00  0.00000000E+00
MxBond                                     I                1
NBond                                      I   N=           2
           0           0
IBond                                      I   N=           2
           0           0
RBond                                      R   N=           2
  0.00000000E+00  0.00000000E+00
Virial Ratio                               R      2.000479701223887E+00
SCF Energy                                 R     -1.087826768311452E+02
Total Energy                               R     -1.087826768311452E+02
S**2                                       R      3.002560644717686E+00
S**2 after annihilation                    R      8.453289900870612E+00
RMS Density                                R      4.440724795218952E-09
Job Status                                 I                1
Nuclear derivative order                   I                0
External E-field                           R   N=          35
  0.00000000E+00  0.00000000E+00  0.00000000E+00  0.00000000E+00  0.00000000E+00
  0.00000000E+00  0.00000000E+00  0.00000000E+00  0.00000000E+00  0.00000000E+00
  0.00000000E+00  0.00000000E+00  0.00000000E+00  0.00000000E+00  0.00000000E+00
  0.00000000E+00  0.00000000E+00  0.00000000E+00  0.00000000E+00  0.00000000E+00
  0.00000000E+00  0.00000000E+00  0.00000000E+00  0.00000000E+00  0.00000000E+00
  0.00000000E+00  0.00000000E+00  0.00000000E+00  0.00000000E+00  0.00000000E+00
  0.00000000E+00  0.00000000E+00  0.00000000E+00  0.00000000E+00  0.00000000E+00
IOpCl                                      I                0
IROHF                                      I                0
Alpha Orbital Energies                     R   N=          30
 -1.56687339E+01 -1.55808503E+01 -1.15798258E+00 -7.25878226E-01 -5.64424570E-01
 -5.64424540E-01 -5.63233602E-01  1.67126726E-01  1.67196326E-01  1.67196349E-01
  8.02072251E-01  8.64035145E-01  8.77675210E-01  8.77675217E-01  1.00275432E+00
  1.09739153E+00  1.09739154E+00  1.21315701E+00  1.94667524E+00  1.94667524E+00
  1.94701349E+00  1.94701350E+00  1.95408526E+00  2.16127771E+00  2.16127771E+00
  2.16135131E+00  2.16135131E+00  2.16631185E+00  3.72511535E+00  3.88594957E+00
Alpha MO coefficients                      R   N=         900
  6.86918189E-01  8.50278782E-04 -3.66385876E-04  0.00000000E+00  0.00000000E+00
 -1.65810344E-05  0.00000000E+00  0.00000000E+00  9.73212454E-06 -1.10857503E-03
 -1.10857503E-03 -1.10698160E-03  0.00000000E+00  0.00000000E+00  0.00000000E+00
  7.27659335E-01  9.01531259E-04 -3.94582289E-04  0.00000000E+00  0.00000000E+00
  1.36573275E-05  0.00000000E+00  0.00000000E+00 -6.99366040E-06 -1.17205265E-03
 -1.17205267E-03 -1.17120501E-03  0.00000000E+00  0.00000000E+00  0.00000000E+00
  7.27676243E-01  9.14942416E-04 -5.00466103E-04  0.00000000E+00  0.00000000E+00
  5.01699325E-05  0.00000000E+00  0.00000000E+00 -4.73406173E-05 -1.13485534E-03
 -1.13485534E-03 -1.14773415E-03  0.00000000E+00  0.00000000E+00  0.00000000E+00
 -6.86936102E-01 -8.64493892E-04  4.78549867E-04  0.00000000E+00  0.00000000E+00
  5.10306269E-05  0.00000000E+00  0.00000000E+00 -4.78242594E-05  1.06917403E-03
  1.06917401E-03  1.08212473E-03  0.00000000E+00  0.00000000E+00  0.00000000E+00
  3.94316852E-04  3.54600431E-01  4.07931118E-01  0.00000000E+00  0.00000000E+00
  9.28150463E-04  0.00000000E+00  0.00000000E+00  2.41492327E-03 -1.20269029E-03
 -1.20268813E-03 -3.12694579E-04 -1.26703556E-09  0.00000000E+00  0.00000000E+00
  3.94341968E-04  3.54608953E-01  4.07940839E-01  0.00000000E+00  0.00000000E+00
 -9.29425035E-04  0.00000000E+00  0.00000000E+00 -2.41554489E-03 -1.20267423E-03
 -1.20268000E-03 -3.12728010E-04  2.52426082E-09  0.00000000E+00  0.00000000E+00
  1.83445134E-03  3.60577926E-01  4.07200557E-01  0.00000000E+00  0.00000000E+00
 -2.13548308E-03  0.00000000E+00  0.00000000E+00 -3.76231633E-03  1.18547176E-04
  1.18550773E-04 -8.71539662E-04  7.55029993E-10  0.00000000E+00  0.00000000E+00
 -1.83440412E-03 -3.60569437E-01 -4.07190999E-01  0.00000000E+00  0.00000000E+00
 -2.13638647E-03  0.00000000E+00  0.00000000E+00 -3.76258002E-03 -1.18568909E-04
 -1.18561047E-04  8.71527407E-04  5.59263460E-10  0.00000000E+00  0.00000000E+00
 -1.72827218E-03 -1.23964107E-02 -5.92216279E-03  0.00000000E+00  0.00000000E+00
  4.57105128E-01  0.00000000E+00  0.00000000E+00  3.31927459E-01 -1.82986612E-03
 -1.82986017E-03  1.52326865E-03 -1.41899191E-09  0.00000000E+00  0.00000000E+00
 -1.72831286E-03 -1.23960509E-02 -5.92146664E-03  0.00000000E+00  0.00000000E+00
 -4.57104334E-01  0.00000000E+00  0.00000000E+00 -3.31927170E-01 -1.83001708E-03
 -1.83001703E-03  1.52354826E-03  0.00000000E+00  0.00000000E+00  0.00000000E+00
  0.00000000E+00  0.00000000E+00  0.00000000E+00  4.64655185E-01  7.61831827E-02
  0.00000000E+00  3.28950754E-01  5.39335752E-02  0.00000000E+00  0.00000000E+00
  0.00000000E+00  0.00000000E+00  0.00000000E+00  4.61356613E-04  7.56424058E-05
  0.00000000E+00  0.00000000E+00  0.00000000E+00  4.64655693E-01  7.61832660E-02
  0.00000000E+00  3.28950129E-01  5.39334729E-02  0.00000000E+00  0.00000000E+00
  0.00000000E+00  0.00000000E+00  0.00000000E+00 -4.61286183E-04 -7.56308573E-05
  0.00000000E+00  0.00000000E+00  0.00000000E+00 -7.61831837E-02  4.64655191E-01
  0.00000000E+00 -5.39335742E-02  3.28950748E-01  0.00000000E+00  0.00000000E+00
  0.00000000E+00  0.00000000E+00  0.00000000E+00 -7.56421838E-05  4.61355270E-04
  0.00000000E+00  0.00000000E+00  0.00000000E+00 -7.61832646E-02  4.64655685E-01
  0.00000000E+00 -5.39334743E-02  3.28950138E-01  0.00000000E+00  0.00000000E+00
  0.00000000E+00  0.00000000E+00  0.00000000E+00  7.56310322E-05 -4.61287251E-04
  0.00000000E+00  0.00000000E+00  0.00000000E+00  7.72954193E-02 -4.71438923E-01
  0.00000000E+00  5.35963849E-02 -3.26894171E-01  0.00000000E+00  0.00000000E+00
  0.00000000E+00  0.00000000E+00  0.00000000E+00 -6.58568271E-05  4.01672661E-04
  0.00000000E+00  0.00000000E+00  0.00000000E+00 -7.72954267E-02  4.71438968E-01
  0.00000000E+00 -5.35963845E-02  3.26894168E-01  0.00000000E+00  0.00000000E+00
  0.00000000E+00  0.00000000E+00  0.00000000E+00 -6.58642509E-05  4.01717941E-04
  0.00000000E+00  0.00000000E+00  0.00000000E+00 -4.71438929E-01 -7.72954202E-02
  0.00000000E+00 -3.26894165E-01 -5.35963839E-02  0.00000000E+00  0.00000000E+00
  0.00000000E+00  0.00000000E+00  0.00000000E+00  4.01671567E-04  6.58566437E-05
  0.00000000E+00  0.00000000E+00  0.00000000E+00  4.71438962E-01  7.72954256E-02
  0.00000000E+00  3.26894175E-01  5.35963856E-02  0.00000000E+00  0.00000000E+00
  0.00000000E+00  0.00000000E+00  0.00000000E+00  4.01718252E-04  6.58643030E-05
  1.13361733E-03  1.19521546E-02  8.51946413E-03  0.00000000E+00  0.00000000E+00
  4.90698787E-01  0.00000000E+00  0.00000000E+00  3.33641831E-01  1.61703547E-03
  1.61701734E-03 -1.09265085E-03  3.40107575E-09  0.00000000E+00  0.00000000E+00
 -1.13311866E-03 -1.19501334E-02 -8.51986439E-03  0.00000000E+00  0.00000000E+00
  4.90698683E-01  0.00000000E+00  0.00000000E+00  3.33642963E-01 -1.61707900E-03
 -1.61709211E-03  1.09327579E-03  2.55360610E-09  0.00000000E+00  0.00000000E+00
 -3.10003583E-01 -6.78647396E-01  1.01212998E+00  0.00000000E+00  0.00000000E+00
 -4.04700405E-01  0.00000000E+00  0.00000000E+00  3.75813178E-01 -1.78532917E-01
 -1.78532917E-01 -1.49918101E-01  3.54531409E-11  0.00000000E+00  0.00000000E+00
 -3.10004069E-01 -6.78648578E-01  1.01213140E+00  0.00000000E+00  0.00000000E+00
  4.04700533E-01  0.00000000E+00  0.00000000E+00 -3.75811905E-01 -1.78533177E-01
 -1.78533177E-01 -1.49918313E-01  1.20409477E-11  0.00000000E+00  0.00000000E+00
  3.56436021E-01  7.72684154E-01 -1.16201271E+00  0.00000000E+00  0.00000000E+00
 -3.44179375E-01  0.00000000E+00  0.00000000E+00  3.86741377E-01  1.81243936E-01
  1.81243937E-01  1.81705164E-01 -2.04897401E-10  0.00000000E+00  0.00000000E+00
 -3.56438904E-01 -7.72690358E-01  1.16202219E+00  0.00000000E+00  0.00000000E+00
 -3.44187036E-01  0.00000000E+00  0.00000000E+00  3.86749386E-01 -1.81245307E-01
 -1.81245305E-01 -1.81706781E-01 -2.10752320E-10  0.00000000E+00  0.00000000E+00
  0.00000000E+00  0.00000000E+00  0.00000000E+00  9.72197105E-02 -6.71836416E-01
  0.00000000E+00 -1.06657776E-01  7.37058134E-01  0.00000000E+00  0.00000000E+00
  0.00000000E+00  0.00000000E+00  0.00000000E+00 -7.78560185E-04  5.38023708E-03
  0.00000000E+00  0.00000000E+00  0.00000000E+00  9.72203625E-02 -6.71840930E-01
  0.00000000E+00 -1.06658522E-01  7.37063292E-01  0.00000000E+00  0.00000000E+00
  0.00000000E+00  0.00000000E+00  0.00000000E+00  7.78558219E-04 -5.38022347E-03
  0.00000000E+00  0.00000000E+00  0.00000000E+00 -6.71836418E-01 -9.72197099E-02
  0.00000000E+00  7.37058145E-01  1.06657777E-01  0.00000000E+00  0.00000000E+00
  0.00000000E+00  0.00000000E+00  0.00000000E+00  5.38023698E-03  7.78560172E-04
  0.00000000E+00  0.00000000E+00  0.00000000E+00 -6.71840926E-01 -9.72203629E-02
  0.00000000E+00  7.37063283E-01  1.06658521E-01  0.00000000E+00  0.00000000E+00
  0.00000000E+00  0.00000000E+00  0.00000000E+00 -5.38022360E-03 -7.78558232E-04
 -2.57126210E-01 -5.50424460E-01  8.50260613E-01  0.00000000E+00  0.00000000E+00
  5.42438296E-01  0.00000000E+00  0.00000000E+00 -5.72830901E-01 -1.27794191E-01
 -1.27794191E-01 -1.41284612E-01 -4.30680254E-11  0.00000000E+00  0.00000000E+00
 -2.57121522E-01 -5.50414231E-01  8.50245410E-01  0.00000000E+00  0.00000000E+00
 -5.42434008E-01  0.00000000E+00  0.00000000E+00  5.72826003E-01 -1.27791805E-01
 -1.27791804E-01 -1.41282198E-01 -1.08072000E-10  0.00000000E+00  0.00000000E+00
  0.00000000E+00  0.00000000E+00  0.00000000E+00  1.18742473E-01 -6.70989133E-01
  0.00000000E+00 -1.35051772E-01  7.63149604E-01  0.00000000E+00  0.00000000E+00
  0.00000000E+00  0.00000000E+00  0.00000000E+00  1.08081465E-03 -6.10745984E-03
  0.00000000E+00  0.00000000E+00  0.00000000E+00 -1.18741616E-01  6.70984288E-01
  0.00000000E+00  1.35050947E-01 -7.63144934E-01  0.00000000E+00  0.00000000E+00
  0.00000000E+00  0.00000000E+00  0.00000000E+00  1.08081914E-03 -6.10748523E-03
  0.00000000E+00  0.00000000E+00  0.00000000E+00 -6.70989131E-01 -1.18742474E-01
  0.00000000E+00  7.63149593E-01  1.35051771E-01  0.00000000E+00  0.00000000E+00
  0.00000000E+00  0.00000000E+00  0.00000000E+00 -6.10745994E-03 -1.08081466E-03
  0.00000000E+00  0.00000000E+00  0.00000000E+00  6.70984290E-01  1.18741616E-01
  0.00000000E+00 -7.63144945E-01 -1.35050947E-01  0.00000000E+00  0.00000000E+00
  0.00000000E+00  0.00000000E+00  0.00000000E+00 -6.10748509E-03 -1.08081913E-03
  2.43930516E-01  5.21553276E-01 -7.87754077E-01  0.00000000E+00  0.00000000E+00
  6.00390770E-01  0.00000000E+00  0.00000000E+00 -7.77356765E-01  7.84537141E-02
  7.84537125E-02  1.51134330E-01  3.14591131E-10  0.00000000E+00  0.00000000E+00
 -2.43930637E-01 -5.21553509E-01  7.87754520E-01  0.00000000E+00  0.00000000E+00
  6.00390818E-01  0.00000000E+00  0.00000000E+00 -7.77356666E-01 -7.84537927E-02
 -7.84537937E-02 -1.51134364E-01  2.28590530E-10  0.00000000E+00  0.00000000E+00
  0.00000000E+00  0.00000000E+00  0.00000000E+00  9.37784888E-04 -6.80487854E-03
  0.00000000E+00 -1.32396789E-03  9.60715140E-03  0.00000000E+00  0.00000000E+00
  0.00000000E+00  0.00000000E+00  2.01205689E-11  9.65200938E-02 -7.00381838E-01
  0.00000000E+00  0.00000000E+00  0.00000000E+00  9.37543833E-04 -6.80312905E-03
  0.00000000E+00 -1.32361826E-03  9.60461344E-03  0.00000000E+00  0.00000000E+00
  0.00000000E+00  0.00000000E+00  0.00000000E+00 -9.65425002E-02  7.00544474E-01
  0.00000000E+00  0.00000000E+00  0.00000000E+00 -6.80487375E-03 -9.37784255E-04
  0.00000000E+00  9.60714592E-03  1.32396725E-03  0.00000000E+00 -1.59527462E-11
  1.57507860E-11  0.00000000E+00  1.79527529E-11 -7.00382214E-01 -9.65201396E-02
  0.00000000E+00  0.00000000E+00  0.00000000E+00 -6.80313367E-03 -9.37544429E-04
  0.00000000E+00  9.60461911E-03  1.32361893E-03  0.00000000E+00  0.00000000E+00
  0.00000000E+00  0.00000000E+00  0.00000000E+00  7.00544097E-01  9.65424544E-02
 -2.73728041E-09 -8.24380396E-09  3.95944138E-09  0.00000000E+00  0.00000000E+00
 -7.21444643E-11  0.00000000E+00  0.00000000E+00  1.10978812E-08 -6.11724594E-01
  6.11724692E-01 -9.46661945E-08 -2.91910928E-05  0.00000000E+00  0.00000000E+00
 -9.23406864E-10 -8.64814308E-10  2.71333145E-09  0.00000000E+00  0.00000000E+00
  1.11664369E-08  0.00000000E+00  0.00000000E+00  2.29438842E-10 -6.13018832E-01
  6.13018976E-01 -1.40414434E-07 -2.92529548E-05 -1.51392872E-11  0.00000000E+00
  7.32402959E-10  1.26869183E-09 -2.07740563E-09  0.00000000E+00  0.00000000E+00
 -1.72861699E-10  0.00000000E+00  0.00000000E+00 -3.13469440E-09 -2.52972228E-05
  2.52633350E-05  3.28922181E-08  7.06358777E-01  0.00000000E+00  0.00000000E+00
  4.24326228E-10  1.29734925E-09 -3.68204754E-10  0.00000000E+00  0.00000000E+00
 -3.98029121E-09  0.00000000E+00  0.00000000E+00  1.85163250E-10 -2.53549237E-05
  2.53125785E-05  4.12378619E-08  7.07853256E-01 -1.62497955E-11 -1.47661254E-11
 -8.26204728E-09 -2.21313376E-08  1.36904949E-08  0.00000000E+00  0.00000000E+00
 -1.92163577E-08  0.00000000E+00  0.00000000E+00  2.71748648E-08  6.13019796E-01
 -6.13019291E-01 -4.91440405E-07 -3.93571650E-06  0.00000000E+00  0.00000000E+00
 -7.55263794E-09 -1.91880736E-08  1.32347042E-08  0.00000000E+00  0.00000000E+00
  1.56634232E-08  0.00000000E+00  0.00000000E+00 -2.62705904E-08 -6.11725023E-01
  6.11725544E-01 -5.07748132E-07  3.92742419E-06  0.00000000E+00  0.00000000E+00
 -2.13082196E-09 -4.92330139E-09  4.44746121E-09  0.00000000E+00  0.00000000E+00
 -4.78524340E-09  0.00000000E+00  0.00000000E+00  7.07619632E-09  3.47159199E-06
 -3.34537090E-06 -1.22868489E-07  7.07853994E-01  0.00000000E+00  1.47232834E-11
 -1.86850969E-09 -4.19484834E-09  3.90721484E-09  0.00000000E+00  0.00000000E+00
  3.65182215E-09  0.00000000E+00  0.00000000E+00 -6.66854434E-09 -3.33499726E-06
  3.46739852E-06 -1.29061849E-07 -7.06359517E-01  0.00000000E+00  0.00000000E+00
  1.11430672E-02  3.04446174E-02 -1.77861488E-02  0.00000000E+00  0.00000000E+00
  2.59089480E-02  0.00000000E+00  0.00000000E+00 -3.62225290E-02 -3.59308303E-01
 -3.59308972E-01  7.00927305E-01  8.98702043E-08  0.00000000E+00  0.00000000E+00
  1.11423452E-02  3.04427898E-02 -1.77846456E-02  0.00000000E+00  0.00000000E+00
 -2.59079018E-02  0.00000000E+00  0.00000000E+00  3.62201792E-02 -3.59318345E-01
 -3.59317266E-01  7.00946310E-01 -1.64471927E-07  0.00000000E+00  0.00000000E+00
  0.00000000E+00  0.00000000E+00  0.00000000E+00  1.14058822E-03 -7.69762987E-03
  0.00000000E+00 -1.61080246E-03  1.08710234E-02  0.00000000E+00  0.00000000E+00
  0.00000000E+00  0.00000000E+00  0.00000000E+00 -1.03653830E-01  6.99541610E-01
  0.00000000E+00  0.00000000E+00  0.00000000E+00 -1.14081073E-03  7.69913227E-03
  0.00000000E+00  1.61113304E-03 -1.08732558E-02  0.00000000E+00  0.00000000E+00
  0.00000000E+00  0.00000000E+00  0.00000000E+00 -1.03629780E-01  6.99379212E-01
  0.00000000E+00  0.00000000E+00  0.00000000E+00 -7.69763468E-03 -1.14058883E-03
  0.00000000E+00  1.08710279E-02  1.61080291E-03  0.00000000E+00  0.00000000E+00
  0.00000000E+00  0.00000000E+00  0.00000000E+00  6.99541233E-01  1.03653788E-01
  0.00000000E+00  0.00000000E+00  0.00000000E+00  7.69912796E-03  1.14081021E-03
  0.00000000E+00 -1.08732510E-02 -1.61113253E-03  0.00000000E+00  0.00000000E+00
  0.00000000E+00  0.00000000E+00  0.00000000E+00  6.99379589E-01  1.03629822E-01
 -2.71744454E-02 -6.87013754E-02  5.65565306E-02  0.00000000E+00  0.00000000E+00
 -5.33824020E-02  0.00000000E+00  0.00000000E+00  8.12196849E-02 -3.44569076E-01
 -3.44569101E-01  7.13884198E-01  1.08097369E-09  0.00000000E+00  0.00000000E+00
  2.71747335E-02  6.87021694E-02 -5.65569671E-02  0.00000000E+00  0.00000000E+00
 -5.33832760E-02  0.00000000E+00  0.00000000E+00  8.12205039E-02  3.44559531E-01
  3.44559477E-01 -7.13865561E-01  7.29068277E-09  0.00000000E+00  0.00000000E+00
  2.27741393E-01  1.11154824E+00  9.64004439E-01  0.00000000E+00  0.00000000E+00
  1.89605051E-02  0.00000000E+00  0.00000000E+00 -3.82175314E-02 -9.11229082E-01
 -9.11229082E-01 -9.30402426E-01  1.50637086E-11  0.00000000E+00  0.00000000E+00
  2.27741870E-01  1.11155089E+00  9.64007274E-01  0.00000000E+00  0.00000000E+00
 -1.89604451E-02  0.00000000E+00  0.00000000E+00  3.82173028E-02 -9.11231507E-01
 -9.11231507E-01 -9.30404754E-01 -6.11726772E-11  0.00000000E+00  0.00000000E+00
  1.93559737E-01  1.05894008E+00  1.11957730E+00  0.00000000E+00  0.00000000E+00
 -4.17584292E-02  0.00000000E+00  0.00000000E+00  8.16238012E-02 -9.63904381E-01
 -9.63904381E-01 -9.31763144E-01  2.20583079E-11  0.00000000E+00  0.00000000E+00
 -1.93559159E-01 -1.05893728E+00 -1.11957490E+00  0.00000000E+00  0.00000000E+00
 -4.17584685E-02  0.00000000E+00  0.00000000E+00  8.16238924E-02  9.63902101E-01
  9.63902101E-01  9.31760812E-01  6.16259418E-11  0.00000000E+00  0.00000000E+00
Orthonormal basis                          R   N=         900
  1.21746787E-02  1.89589062E-01  2.03063692E-01 -6.12296950E-17  0.00000000E+00
  3.05927622E-03 -1.91960058E-18  2.93303583E-18  1.16028091E-02  1.57513221E-01
  1.57513221E-01  1.58078018E-01  1.15047012E-27  6.39423465E-22 -1.67057831E-21
  1.21746787E-02  1.89589062E-01  2.03063692E-01  8.33601988E-20 -2.17995356E-19
 -3.05927622E-03  6.28370762E-20 -2.01227762E-19 -1.16028091E-02  1.57513221E-01
  1.57513221E-01  1.58078018E-01  3.56584357E-33  1.15715462E-21 -1.66339182E-21
  1.20159326E-02  1.91603470E-01  2.00983652E-01  0.00000000E+00  0.00000000E+00
 -2.57175524E-03  2.00851631E-18 -3.29712268E-18 -1.00174343E-02  1.59136428E-01
  1.59136428E-01  1.58755431E-01 -9.45729564E-28 -5.06254104E-22  1.35330007E-21
 -1.20159326E-02 -1.91603470E-01 -2.00983652E-01 -6.55497437E-20  1.76220224E-19
 -2.57175524E-03 -4.01072744E-20  1.56018320E-19 -1.00174343E-02 -1.59136428E-01
 -1.59136428E-01 -1.58755431E-01 -2.92870637E-33 -2.23620853E-21  2.35963698E-21
  4.28891528E-03 -1.47082564E-02  3.56705261E-03 -1.74255555E-16  2.61383333E-16
  3.62159753E-01 -6.21379610E-17  3.17261625E-16  4.19828145E-01 -1.16469989E-02
 -1.16469989E-02 -1.88546420E-03 -3.24576265E-25 -9.60445286E-20  2.93314623E-19
  4.28891528E-03 -1.47082564E-02  3.56705261E-03 -1.27808907E-17  3.90895972E-17
 -3.62159753E-01 -1.59649301E-17  4.58454548E-17 -4.19828145E-01 -1.16469989E-02
 -1.16469989E-02 -1.88546420E-03 -2.28941032E-31  8.61435198E-19 -1.98942139E-18
  9.31986791E-20 -1.34802208E-17  3.71095814E-17  3.06984658E-01 -2.54099566E-01
  1.67303728E-16  3.14451226E-01 -2.60279847E-01  2.36352722E-16  9.89076481E-17
 -8.86288895E-17 -5.50198810E-17  3.03231481E-16  2.33933362E-03 -1.93633018E-03
 -7.73283115E-16  2.21772442E-16 -6.74414995E-17  3.06984658E-01 -2.54099566E-01
 -2.80500689E-16  3.14451226E-01 -2.60279847E-01 -5.21225764E-17 -2.41812686E-17
  2.06035762E-17  2.13416948E-17 -3.59986636E-21 -2.33933362E-03  1.93633018E-03
  3.39691417E-18  2.06592940E-17  2.25537183E-17  2.54099566E-01  3.06984658E-01
 -2.13135264E-16  2.60279847E-01  3.14451226E-01 -2.71494223E-16  1.34440174E-16
 -1.03479314E-16 -8.31753345E-17 -1.06364006E-16  1.93633018E-03  2.33933362E-03
  7.97814914E-17 -4.51473908E-17  4.50053110E-17  2.54099566E-01  3.06984658E-01
  3.32822303E-17  2.60279847E-01  3.14451226E-01 -2.47616254E-17 -3.38888363E-17
  5.56808533E-17 -4.48748905E-17 -3.89760309E-17 -1.93633018E-03 -2.33933362E-03
  4.07803173E-18  1.48434044E-17  6.28714644E-19 -9.83231561E-03  4.11882023E-01
 -3.10436107E-16 -9.59809493E-03  4.02070368E-01 -3.24081114E-16 -5.54559532E-18
  4.52164263E-17 -5.59082114E-17 -1.58200944E-16  7.53498221E-05 -3.15645250E-03
  8.61560227E-17 -2.02281001E-17 -2.63151245E-18  9.83231561E-03 -4.11882023E-01
  5.82099633E-17  9.59809493E-03 -4.02070368E-01 -4.25594735E-17 -1.20122493E-18
 -1.25012923E-17 -3.35437377E-18 -5.35038575E-17  7.53498221E-05 -3.15645250E-03
 -6.02322174E-18  2.68963955E-17  6.04804641E-17  4.11882023E-01  9.83231561E-03
 -3.39330472E-17  4.02070368E-01  9.59809493E-03  4.22426560E-17  2.72659434E-17
 -6.59596127E-17 -8.28694774E-17 -1.44626882E-16 -3.15645250E-03 -7.53498221E-05
  1.66108356E-15 -6.12949408E-16  3.61771833E-16 -4.11882023E-01 -9.83231561E-03
 -1.36756362E-16 -4.02070368E-01 -9.59809493E-03 -5.67271284E-17  1.10720321E-16
  2.03197816E-17 -2.37738548E-17  8.82088725E-21 -3.15645250E-03 -7.53498221E-05
 -7.91720488E-03  1.49406322E-02 -6.36013595E-03  1.62320683E-16  2.78264027E-16
  4.48761539E-01  1.28159325E-16  2.89383619E-16  3.83457512E-01  1.10371513E-02
  1.10371513E-02 -4.23382103E-05  2.76430475E-24  3.28629350E-19 -4.77606528E-19
  7.91720488E-03 -1.49406322E-02  6.36013595E-03  4.35306227E-17 -6.15454248E-17
  4.48761539E-01  4.51448143E-17 -5.37957285E-17  3.83457512E-01 -1.10371513E-02
 -1.10371513E-02  4.23382103E-05  3.00066821E-30 -7.58618139E-19 -2.87010908E-18
  6.27852510E-01 -2.05057958E-01  1.13240161E-01 -4.74967835E-16 -2.86400358E-16
 -1.19408716E-02 -5.57787946E-16 -3.44173877E-16 -3.22626682E-03  1.71302172E-02
  1.71302172E-02  1.84426081E-02 -4.01850359E-22  7.80772227E-18 -1.44592183E-18
  6.27852510E-01 -2.05057958E-01  1.13240161E-01  1.02076315E-15 -1.91142422E-16
  1.19408716E-02  1.00698073E-15 -2.00226854E-16  3.22626682E-03  1.71302172E-02
  1.71302172E-02  1.84426081E-02  1.47982716E-28  4.02584379E-18  4.22295791E-19
  6.28990612E-01 -2.03062395E-01  1.11399620E-01  4.34752390E-16  2.63486297E-16
  1.50134395E-02  5.42416156E-16  3.49209731E-16  4.05537364E-03  1.95015233E-02
  1.95015233E-02  1.78417707E-02  0.00000000E+00 -7.88309903E-18  1.45876318E-18
 -6.28990612E-01  2.03062395E-01 -1.11399620E-01 -1.03058988E-15  1.92873017E-16