Title section
Stability RHF                                                         CC-pVDZ
Number of atoms                            I                2
Info1-9                                    I   N=           9
          13          12           0           0           0         110
           7           1           2
Full Title                                 C   N=           2
Title section
Route                                      C   N=          11
#p int=(nobasistransform) nosymm pop=full punch=gamessinput
gfprint uhf/cc-pvdz 6D 10F guess=mix SCF=(xqc, maxcycle=500)
 stable=opt
Charge                                     I                0
Multiplicity                               I                1
Number of electrons                        I               14
Number of alpha electrons                  I                7
Number of beta electrons                   I                7
Number of basis functions                  I               30
Number of independent functions            I               30
Number of point charges in /Mol/           I                0
Number of translation vectors              I                0
Atomic numbers                             I   N=           2
           7           7
Nuclear charges                            R   N=           2
  7.00000000E+00  7.00000000E+00
Current cartesian coordinates              R   N=           6
  0.00000000E+00  0.00000000E+00  0.00000000E+00  0.00000000E+00  0.00000000E+00
  7.55890450E+00
Number of symbols in /Mol/                 I                0
Force Field                                I                0
Atom Types                                 C   N=           2

Int Atom Types                             I   N=           2
           0           0
MM charges                                 R   N=           2
  0.00000000E+00  0.00000000E+00
Integer atomic weights                     I   N=           2
          14          14
Real atomic weights                        R   N=           2
  1.40030740E+01  1.40030740E+01
Atom fragment info                         I   N=           2
           0           0
Atom residue num                           I   N=           2
           0           0
Nuclear spins                              I   N=           2
           2           2
Nuclear ZEff                               R   N=           2
 -4.55000000E+00 -4.55000000E+00
Nuclear ZNuc                               R   N=           2
  7.00000000E+00  7.00000000E+00
Nuclear QMom                               R   N=           2
  2.04400000E+00  2.04400000E+00
Nuclear GFac                               R   N=           2
  4.03761000E-01  4.03761000E-01
MicOpt                                     I   N=           2
          -1          -1
Number of residues                         I                0
Number of secondary structures             I                0
Number of contracted shells                I               12
Number of primitive shells                 I               44
Pure/Cartesian d shells                    I                1
Pure/Cartesian f shells                    I                1
Highest angular momentum                   I                2
Largest degree of contraction              I                8
Shell types                                I   N=          12
           0           0           0           1           1           2
           0           0           0           1           1           2
Number of primitives per shell             I   N=          12
           8           8           1           3           1           1
           8           8           1           3           1           1
Shell to atom map                          I   N=          12
           1           1           1           1           1           1
           2           2           2           2           2           2
Primitive exponents                        R   N=          44
  9.04600000E+03  1.35700000E+03  3.09300000E+02  8.77300000E+01  2.85600000E+01
  1.02100000E+01  3.83800000E+00  7.46600000E-01  9.04600000E+03  1.35700000E+03
  3.09300000E+02  8.77300000E+01  2.85600000E+01  1.02100000E+01  3.83800000E+00
  7.46600000E-01  2.24800000E-01  1.35500000E+01  2.91700000E+00  7.97300000E-01
  2.18500000E-01  8.17000000E-01  9.04600000E+03  1.35700000E+03  3.09300000E+02
  8.77300000E+01  2.85600000E+01  1.02100000E+01  3.83800000E+00  7.46600000E-01
  9.04600000E+03  1.35700000E+03  3.09300000E+02  8.77300000E+01  2.85600000E+01
  1.02100000E+01  3.83800000E+00  7.46600000E-01  2.24800000E-01  1.35500000E+01
  2.91700000E+00  7.97300000E-01  2.18500000E-01  8.17000000E-01
Contraction coefficients                   R   N=          44
  6.99617413E-04  5.38605463E-03  2.73910212E-02  1.03150592E-01  2.78570663E-01
  4.48294849E-01  2.78085928E-01  1.54315612E-02 -3.04990096E-04 -2.40802638E-03
 -1.19444487E-02 -4.89259929E-02 -1.34472725E-01 -3.15112578E-01 -2.42857833E-01
  1.09438221E+00  1.00000000E+00  5.89056768E-02  3.20461107E-01  7.53042062E-01
  1.00000000E+00  1.00000000E+00  6.99617413E-04  5.38605463E-03  2.73910212E-02
  1.03150592E-01  2.78570663E-01  4.48294849E-01  2.78085928E-01  1.54315612E-02
 -3.04990096E-04 -2.40802638E-03 -1.19444487E-02 -4.89259929E-02 -1.34472725E-01
 -3.15112578E-01 -2.42857833E-01  1.09438221E+00  1.00000000E+00  5.89056768E-02
  3.20461107E-01  7.53042062E-01  1.00000000E+00  1.00000000E+00
Coordinates of each shell                  R   N=          36
  0.00000000E+00  0.00000000E+00  0.00000000E+00  0.00000000E+00  0.00000000E+00
  0.00000000E+00  0.00000000E+00  0.00000000E+00  0.00000000E+00  0.00000000E+00
  0.00000000E+00  0.00000000E+00  0.00000000E+00  0.00000000E+00  0.00000000E+00
  0.00000000E+00  0.00000000E+00  0.00000000E+00  0.00000000E+00  0.00000000E+00
  7.55890450E+00  0.00000000E+00  0.00000000E+00  7.55890450E+00  0.00000000E+00
  0.00000000E+00  7.55890450E+00  0.00000000E+00  0.00000000E+00  7.55890450E+00
  0.00000000E+00  0.00000000E+00  7.55890450E+00  0.00000000E+00  0.00000000E+00
  7.55890450E+00
Num ILSW                                   I              100
ILSW                                       I   N=         100
           0           1           0           0           2           1
           0           0           0           0           0          -1
           5           0           0           1           0           0
           0           0           0           0           0           0
           1           1           0           0           0           0
           0           0      100000           0          -1           0
           0           0           0           0           0           0
           0           0           0           1           0           0
           0 -2000000000           1           0           0           0
           0           0           4          52           0           0
           0           0           0           0           0           0
           0           0           0           2           0           1
           0           0           0           0           0           0
           0           0           0           0           0           0
           0           0           0           0           0           0
           0           0           0           0           0           0
           0           0           0           0
Num RLSW                                   I               52
RLSW                                       R   N=          52
  1.00000000E+00  1.00000000E+00  1.00000000E+00  1.00000000E+00  1.00000000E+00
  0.00000000E+00  0.00000000E+00  1.00000000E+00  0.00000000E+00  0.00000000E+00
  0.00000000E+00  0.00000000E+00  1.00000000E+00  0.00000000E+00  0.00000000E+00
  0.00000000E+00  0.00000000E+00  1.00000000E+00  0.00000000E+00  0.00000000E+00
  0.00000000E+00  0.00000000E+00  1.00000000E+00  0.00000000E+00  0.00000000E+00
  0.00000000E+00  0.00000000E+00  1.00000000E+00  0.00000000E+00  0.00000000E+00
  0.00000000E+00  0.00000000E+00  1.00000000E+00  0.00000000E+00  0.00000000E+00
  0.00000000E+00  0.00000000E+00  0.00000000E+00  1.00000000E+00  1.00000000E+00
  0.00000000E+00  1.00000000E+00  0.00000000E+00  0.00000000E+00  0.00000000E+00
  0.00000000E+00  0.00000000E+00  0.00000000E+00  0.00000000E+00  0.00000000E+00
  0.00000000E+00  0.00000000E+00
MxBond                                     I                1
NBond                                      I   N=           2
           0           0
IBond                                      I   N=           2
           0           0
RBond                                      R   N=           2
  0.00000000E+00  0.00000000E+00
Virial Ratio                               R      2.000466845351831E+00
SCF Energy                                 R     -1.087827752084152E+02
Total Energy                               R     -1.087827752084152E+02
S**2                                       R      3.008768954286945E+00
S**2 after annihilation                    R      8.463921242004789E+00
RMS Density                                R      6.330030599103058E-09
Job Status                                 I                1
Nuclear derivative order                   I                0
External E-field                           R   N=          35
  0.00000000E+00  0.00000000E+00  0.00000000E+00  0.00000000E+00  0.00000000E+00
  0.00000000E+00  0.00000000E+00  0.00000000E+00  0.00000000E+00  0.00000000E+00
  0.00000000E+00  0.00000000E+00  0.00000000E+00  0.00000000E+00  0.00000000E+00
  0.00000000E+00  0.00000000E+00  0.00000000E+00  0.00000000E+00  0.00000000E+00
  0.00000000E+00  0.00000000E+00  0.00000000E+00  0.00000000E+00  0.00000000E+00
  0.00000000E+00  0.00000000E+00  0.00000000E+00  0.00000000E+00  0.00000000E+00
  0.00000000E+00  0.00000000E+00  0.00000000E+00  0.00000000E+00  0.00000000E+00
IOpCl                                      I                0
IROHF                                      I                0
Alpha Orbital Energies                     R   N=          30
 -1.56684904E+01 -1.55805481E+01 -1.15793353E+00 -7.24860432E-01 -5.64330740E-01
 -5.64330727E-01 -5.64247941E-01  1.67188914E-01  1.67468168E-01  1.67468171E-01
  8.48537158E-01  8.72599437E-01  8.79490240E-01  8.79490249E-01  9.61629407E-01
  1.09419113E+00  1.09419113E+00  1.10149266E+00  1.94678764E+00  1.94678764E+00
  1.94680020E+00  1.94680020E+00  1.94682933E+00  2.16144761E+00  2.16144761E+00
  2.16145578E+00  2.16145578E+00  2.16146100E+00  3.72638490E+00  3.84222603E+00
Alpha MO coefficients                      R   N=         900
  9.51263207E-01  1.20645912E-03 -5.61507157E-04  0.00000000E+00  0.00000000E+00
 -1.42579813E-06  0.00000000E+00  0.00000000E+00  5.97796372E-07 -1.52304046E-03
 -1.52304033E-03 -1.52337987E-03  0.00000000E+00  0.00000000E+00  0.00000000E+00
  3.10598552E-01  3.93427319E-04 -1.77256200E-04  0.00000000E+00  0.00000000E+00
  6.60694038E-06  0.00000000E+00  0.00000000E+00 -3.46091459E-06 -4.99528050E-04
 -4.99528122E-04 -4.99296032E-04  0.00000000E+00  0.00000000E+00  0.00000000E+00
 -3.10600511E-01 -3.94543356E-04  1.90873543E-04  0.00000000E+00  0.00000000E+00
 -7.13504211E-06  0.00000000E+00  0.00000000E+00  3.85393520E-06  4.94523689E-04
  4.94524086E-04  4.95057806E-04  0.00000000E+00  0.00000000E+00  0.00000000E+00
  9.51263849E-01  1.20683414E-03 -5.65952404E-04  0.00000000E+00  0.00000000E+00
 -3.05990267E-06  0.00000000E+00  0.00000000E+00  1.78958280E-06 -1.52141110E-03
 -1.52141109E-03 -1.52199783E-03  0.00000000E+00  0.00000000E+00  0.00000000E+00
  6.88806123E-04  3.56718809E-01  4.09020348E-01  0.00000000E+00  0.00000000E+00
 -1.71880657E-04  0.00000000E+00  0.00000000E+00  1.00588760E-03 -8.41421788E-04
 -8.41424990E-04 -7.55023794E-04 -2.85527731E-09  0.00000000E+00  0.00000000E+00
  6.88546615E-04  3.56640458E-01  4.08931171E-01  0.00000000E+00  0.00000000E+00
  1.71892099E-04  0.00000000E+00  0.00000000E+00 -1.00622365E-03 -8.41364295E-04
 -8.41357748E-04 -7.54933615E-04  3.21025818E-09  0.00000000E+00  0.00000000E+00
 -1.11701951E-03 -3.57623481E-01 -4.07374032E-01  0.00000000E+00  0.00000000E+00
 -1.48433619E-04  0.00000000E+00  0.00000000E+00  1.02607352E-03  3.26424323E-04
  3.26423972E-04  4.16877322E-04 -3.09210798E-10  0.00000000E+00  0.00000000E+00
  1.11715216E-03  3.57701553E-01  4.07463643E-01  0.00000000E+00  0.00000000E+00
 -1.48612190E-04  0.00000000E+00  0.00000000E+00  1.02563425E-03 -3.26618577E-04
 -3.26618412E-04 -4.17043836E-04  3.04486872E-09  0.00000000E+00  0.00000000E+00
  8.69772030E-04  2.63807912E-03 -2.36414423E-03  0.00000000E+00  0.00000000E+00
 -4.69420028E-01  0.00000000E+00  0.00000000E+00 -3.35441061E-01  1.02024532E-03
  1.02024532E-03  5.14004626E-04  0.00000000E+00  0.00000000E+00  0.00000000E+00
  8.69816774E-04  2.63836065E-03 -2.36403938E-03  0.00000000E+00  0.00000000E+00
  4.69420536E-01  0.00000000E+00  0.00000000E+00  3.35440452E-01  1.02020905E-03
  1.02021355E-03  5.14110898E-04  4.02068009E-09  0.00000000E+00  0.00000000E+00
  0.00000000E+00  0.00000000E+00  0.00000000E+00  2.26313855E-01  4.15706284E-01
  0.00000000E+00  1.59328039E-01  2.92662890E-01  0.00000000E+00  0.00000000E+00
  0.00000000E+00  0.00000000E+00  0.00000000E+00  1.38980438E-05  2.55286598E-05
  0.00000000E+00  0.00000000E+00  0.00000000E+00  2.26313854E-01  4.15706282E-01
  0.00000000E+00  1.59328041E-01  2.92662893E-01  0.00000000E+00  0.00000000E+00
  0.00000000E+00  0.00000000E+00  0.00000000E+00 -1.38875814E-05 -2.55094417E-05
  0.00000000E+00  0.00000000E+00  0.00000000E+00  4.15706283E-01 -2.26313855E-01
  0.00000000E+00  2.92662891E-01 -1.59328040E-01  0.00000000E+00  0.00000000E+00
  0.00000000E+00  0.00000000E+00 -1.25031160E-11  2.55282419E-05 -1.38978141E-05
  0.00000000E+00  0.00000000E+00  0.00000000E+00  4.15706279E-01 -2.26313853E-01
  0.00000000E+00  2.92662895E-01 -1.59328042E-01  0.00000000E+00  0.00000000E+00
  0.00000000E+00  0.00000000E+00  1.23312586E-11 -2.55030170E-05  1.38840821E-05
  0.00000000E+00  0.00000000E+00  0.00000000E+00  4.16537622E-01 -2.26766443E-01
  0.00000000E+00  2.92073876E-01 -1.59007375E-01  0.00000000E+00  0.00000000E+00
  0.00000000E+00  0.00000000E+00 -2.08079216E-11 -2.51991423E-05  1.37186437E-05
  0.00000000E+00  0.00000000E+00  0.00000000E+00 -4.16537615E-01  2.26766439E-01
  0.00000000E+00 -2.92073884E-01  1.59007379E-01  0.00000000E+00  0.00000000E+00
  0.00000000E+00  0.00000000E+00 -3.19212187E-11 -2.52173088E-05  1.37285334E-05
  0.00000000E+00  0.00000000E+00  0.00000000E+00  2.26766446E-01  4.16537627E-01
  0.00000000E+00  1.59007372E-01  2.92073871E-01  0.00000000E+00  0.00000000E+00
  0.00000000E+00  0.00000000E+00  0.00000000E+00 -1.37182042E-05 -2.51983346E-05
  0.00000000E+00  0.00000000E+00  0.00000000E+00 -2.26766444E-01 -4.16537624E-01
  0.00000000E+00 -1.59007373E-01 -2.92073874E-01  0.00000000E+00  0.00000000E+00
  0.00000000E+00  0.00000000E+00  0.00000000E+00 -1.37278459E-05 -2.52160451E-05
  8.13019039E-04  2.50912914E-03 -2.18752188E-03  0.00000000E+00  0.00000000E+00
  4.77890865E-01  0.00000000E+00  0.00000000E+00  3.30524582E-01  9.86770060E-04
  9.86770061E-04  4.90640227E-04  0.00000000E+00  0.00000000E+00  0.00000000E+00
 -8.13018809E-04 -2.50906564E-03  2.18755640E-03  0.00000000E+00  0.00000000E+00
  4.77891418E-01  0.00000000E+00  0.00000000E+00  3.30524008E-01 -9.86776863E-04
 -9.86776839E-04 -4.90603193E-04  1.50626486E-11  0.00000000E+00  0.00000000E+00
 -3.79956031E-01 -8.20435968E-01  1.25048102E+00  0.00000000E+00  0.00000000E+00
 -2.57244194E-01  0.00000000E+00  0.00000000E+00  2.75794437E-01 -2.01416209E-01
 -2.01416209E-01 -1.99392407E-01  8.78625575E-11  0.00000000E+00  0.00000000E+00
 -3.79954072E-01 -8.20431735E-01  1.25047465E+00  0.00000000E+00  0.00000000E+00
  2.57244615E-01  0.00000000E+00  0.00000000E+00 -2.75795135E-01 -2.01415231E-01
 -2.01415231E-01 -1.99391434E-01 -7.64872013E-11  0.00000000E+00  0.00000000E+00
  4.04240408E-01  8.74193626E-01 -1.32372011E+00  0.00000000E+00  0.00000000E+00
 -1.49487451E-01  0.00000000E+00  0.00000000E+00  1.63355701E-01  2.08032464E-01
  2.08032464E-01  2.08480971E-01 -8.98919923E-11  0.00000000E+00  0.00000000E+00
 -4.04242250E-01 -8.74197593E-01  1.32372623E+00  0.00000000E+00  0.00000000E+00
 -1.49486254E-01  0.00000000E+00  0.00000000E+00  1.63354642E-01 -2.08033467E-01
 -2.08033468E-01 -2.08481984E-01 -2.29768420E-10  0.00000000E+00  0.00000000E+00
 -1.59175212E-01 -3.44554750E-01  5.18573916E-01  0.00000000E+00  0.00000000E+00
  6.29108032E-01  0.00000000E+00  0.00000000E+00 -6.92004766E-01 -7.88039431E-02
 -7.88039430E-02 -8.11088723E-02  4.76358514E-11  0.00000000E+00  0.00000000E+00
 -1.59175013E-01 -3.44554301E-01  5.18573308E-01  0.00000000E+00  0.00000000E+00
 -6.29108328E-01  0.00000000E+00  0.00000000E+00  6.92005746E-01 -7.88038510E-02
 -7.88038519E-02 -8.11088019E-02 -3.96823539E-10  0.00000000E+00  0.00000000E+00
  0.00000000E+00  0.00000000E+00  0.00000000E+00 -5.88811917E-01  3.40928514E-01
  0.00000000E+00  6.55991706E-01 -3.79826345E-01  0.00000000E+00  0.00000000E+00
  0.00000000E+00  0.00000000E+00  8.53702558E-11  2.01562516E-04 -1.16706907E-04
  0.00000000E+00  0.00000000E+00  0.00000000E+00 -5.88797925E-01  3.40920411E-01
  0.00000000E+00  6.55976056E-01 -3.79817281E-01  0.00000000E+00  0.00000000E+00
  0.00000000E+00  0.00000000E+00 -9.54334070E-11 -2.01572621E-04  1.16712710E-04
  0.00000000E+00  0.00000000E+00  0.00000000E+00 -3.40928540E-01 -5.88811964E-01
  0.00000000E+00  3.79826373E-01  6.55991759E-01  0.00000000E+00  0.00000000E+00
  0.00000000E+00  0.00000000E+00  4.36423208E-11  1.16706877E-04  2.01562506E-04
  0.00000000E+00  0.00000000E+00  0.00000000E+00 -3.40920385E-01 -5.88797876E-01
  0.00000000E+00  3.79817253E-01  6.55976005E-01  0.00000000E+00  0.00000000E+00
  0.00000000E+00  0.00000000E+00 -4.87387207E-11 -1.16712280E-04 -2.01571786E-04
  0.00000000E+00  0.00000000E+00  0.00000000E+00  6.39326608E-01 -2.32863347E-01
  0.00000000E+00 -7.14747704E-01  2.60334138E-01  0.00000000E+00  0.00000000E+00
  0.00000000E+00  0.00000000E+00 -8.02088523E-11  2.26371242E-04 -8.24516858E-05
  0.00000000E+00  0.00000000E+00  0.00000000E+00 -6.39341815E-01  2.32868868E-01
  0.00000000E+00  7.14764642E-01 -2.60340286E-01  0.00000000E+00  0.00000000E+00
  0.00000000E+00  0.00000000E+00 -1.20422532E-10  2.26360896E-04 -8.24478691E-05
  0.00000000E+00  0.00000000E+00  0.00000000E+00  2.32863310E-01  6.39326562E-01
  0.00000000E+00 -2.60334103E-01 -7.14747660E-01  0.00000000E+00  0.00000000E+00
  0.00000000E+00  0.00000000E+00 -2.64235256E-11  8.24517107E-05  2.26371251E-04
  0.00000000E+00  0.00000000E+00  0.00000000E+00 -2.32868897E-01 -6.39341852E-01
  0.00000000E+00  2.60340326E-01  7.14764692E-01  0.00000000E+00  0.00000000E+00
  0.00000000E+00  0.00000000E+00 -4.53366924E-11  8.24481069E-05  2.26361203E-04
 -9.48608926E-02 -2.06263449E-01  3.04688083E-01  0.00000000E+00  0.00000000E+00
 -6.64935389E-01  0.00000000E+00  0.00000000E+00  7.56854871E-01 -4.27964862E-02
 -4.27964861E-02 -4.63317477E-02  2.46873428E-11  0.00000000E+00  0.00000000E+00
  9.48611440E-02  2.06264016E-01 -3.04688887E-01  0.00000000E+00  0.00000000E+00
 -6.64934459E-01  0.00000000E+00  0.00000000E+00  7.56854470E-01  4.27966270E-02
  4.27966269E-02  4.63318804E-02 -3.83893748E-11  0.00000000E+00  0.00000000E+00
  6.30215593E-04  1.67873132E-03 -1.10798206E-03  0.00000000E+00  0.00000000E+00
  2.09559550E-03  0.00000000E+00  0.00000000E+00 -3.07301859E-03 -3.54140806E-01
 -3.54145008E-01  7.07418463E-01 -3.18442177E-06  0.00000000E+00  0.00000000E+00
  6.31518457E-04  1.68218816E-03 -1.11030607E-03  0.00000000E+00  0.00000000E+00
 -2.09974757E-03  0.00000000E+00  0.00000000E+00  3.07906243E-03 -3.53544489E-01
 -3.53534721E-01  7.06210090E-01  8.94252321E-06  0.00000000E+00  0.00000000E+00
  0.00000000E+00  0.00000000E+00  0.00000000E+00  2.12984154E-04 -1.31514545E-04
  0.00000000E+00 -2.98785383E-04  1.84495808E-04  0.00000000E+00 -1.89480128E-10
  1.79659897E-10  0.00000000E+00 -3.87138503E-08  6.03179414E-01 -3.72456240E-01
  0.00000000E+00  0.00000000E+00  0.00000000E+00  2.14124312E-04 -1.32219082E-04
  0.00000000E+00 -3.00351420E-04  1.85463573E-04  0.00000000E+00 -3.65826390E-10
  3.76533419E-10 -1.07347342E-11  4.38827912E-08 -6.00112747E-01  3.70561105E-01
  0.00000000E+00  0.00000000E+00  0.00000000E+00  1.31511500E-04  2.12977792E-04
  0.00000000E+00 -1.84493787E-04 -2.98781175E-04  0.00000000E+00  2.70352847E-10
 -2.69338796E-10  0.00000000E+00 -2.47685596E-08  3.72461317E-01  6.03190092E-01
  0.00000000E+00  0.00000000E+00  0.00000000E+00  1.32219462E-04  2.14125131E-04
  0.00000000E+00 -1.85466690E-04 -3.00357992E-04  0.00000000E+00  3.56266671E-10
 -3.57117093E-10  0.00000000E+00  2.59598206E-08 -3.70556002E-01 -6.00102015E-01
  4.76026184E-10  6.22054425E-10 -1.56024770E-09  0.00000000E+00  0.00000000E+00
  2.16845058E-09  0.00000000E+00  0.00000000E+00 -1.25877907E-09 -6.23166724E-01
  6.23169921E-01 -3.19692557E-06  7.61318239E-04 -4.25338124E-10  3.86539001E-10
 -3.39415213E-09 -8.87107930E-09  5.56734277E-09  0.00000000E+00  0.00000000E+00
  9.11739978E-09  0.00000000E+00  0.00000000E+00 -1.53245714E-08 -6.01382137E-01
  6.01382016E-01  1.25238030E-07  7.34702137E-04 -2.60035292E-10 -5.64762465E-10
  3.81128049E-10  1.49619997E-09 -3.06121716E-10  1.37938929E-10  0.00000000E+00
  2.10128093E-09 -1.18811174E-10  0.00000000E+00 -1.91999555E-10  6.62004995E-04
 -6.56635741E-04 -5.36922087E-06  7.19572527E-01 -4.33623514E-08  1.24579867E-09
 -5.35981415E-09 -1.47690420E-08  9.23504788E-09 -1.46430995E-10  0.00000000E+00
  1.55883333E-08  1.28855046E-10  0.00000000E+00 -2.57961629E-08  6.36355662E-04
 -6.36186986E-04 -1.62452525E-07  6.94416488E-01 -4.02771118E-08 -4.49471081E-10
 -2.86099836E-09 -9.00401654E-09  3.66223294E-09  0.00000000E+00  0.00000000E+00
 -8.58833163E-09  0.00000000E+00  0.00000000E+00  1.45700356E-08  6.01384778E-01
 -6.01380019E-01 -4.75557092E-06  1.53217932E-04 -1.14554200E-10  5.63849613E-11
 -4.25173652E-09 -1.31342001E-08  6.43320871E-09  0.00000000E+00  0.00000000E+00
  1.32107173E-08  0.00000000E+00  0.00000000E+00 -2.14136157E-08 -6.23166974E-01
  6.23170339E-01 -3.35901336E-06 -1.58767156E-04  0.00000000E+00 -1.59274331E-10
 -4.01546538E-09 -1.13056475E-08  6.47615468E-09 -9.84738887E-11  0.00000000E+00
 -1.20079689E-08  9.95363677E-11  0.00000000E+00  2.06025615E-08  1.36428377E-04
 -1.28951045E-04 -7.47218585E-06 -6.94416860E-01 -5.74362534E-08  6.73965326E-10
 -7.01030061E-09 -2.08236975E-08  1.02070625E-08 -1.62565280E-10  0.00000000E+00
  2.12021926E-08  1.55010922E-10  0.00000000E+00 -3.41383491E-08 -1.35117878E-04
  1.39876535E-04 -4.75013133E-06  7.19572912E-01  3.95228122E-08  4.13224036E-10
  0.00000000E+00  0.00000000E+00  0.00000000E+00 -2.22454175E-04  1.34168382E-04
  0.00000000E+00  3.10612320E-04 -1.87339174E-04  0.00000000E+00 -1.68305796E-10
  1.56544467E-10  1.17795389E-11  2.89431204E-08  6.03956779E-01 -3.64262361E-01
  0.00000000E+00  0.00000000E+00  0.00000000E+00  2.21337190E-04 -1.33494543E-04
  0.00000000E+00 -3.09081741E-04  1.86415312E-04  0.00000000E+00 -1.93561354E-10
  2.05334425E-10 -1.17912625E-11  4.33484148E-08  6.07043202E-01 -3.66125101E-01
  0.00000000E+00  0.00000000E+00  0.00000000E+00 -1.34169463E-04 -2.22456349E-04
  0.00000000E+00  1.87342113E-04  3.10618294E-04  0.00000000E+00 -1.48421094E-10
  1.31798605E-10  1.66482896E-11  1.76093401E-08  3.64257145E-01  6.03946101E-01
  0.00000000E+00  0.00000000E+00  0.00000000E+00  1.33494334E-04  2.21336762E-04
  0.00000000E+00 -1.86412086E-04 -3.09075133E-04  0.00000000E+00 -2.55199621E-10
  2.71859492E-10 -1.66856215E-11  2.50445578E-08  3.66130290E-01  6.07053825E-01
  7.66783063E-04  2.03168874E-03 -1.37303222E-03  0.00000000E+00  0.00000000E+00
  2.41676007E-03  0.00000000E+00  0.00000000E+00 -3.54301796E-03  3.52908430E-01
  3.52906693E-01 -7.06840592E-01 -1.31684722E-06  2.71940562E-11  0.00000000E+00
 -7.65712547E-04 -2.02883046E-03  1.37116025E-03  0.00000000E+00  0.00000000E+00
  2.41310065E-03  0.00000000E+00  0.00000000E+00 -3.53779439E-03 -3.53509935E-01
 -3.53513977E-01  7.08047875E-01 -3.93405080E-06  1.05724232E-11  1.43841045E-11
  2.18585143E-01  1.09817373E+00  1.00708043E+00  0.00000000E+00  0.00000000E+00
  6.15638985E-03  0.00000000E+00  0.00000000E+00 -1.01696629E-02 -9.27405188E-01
 -9.27405188E-01 -9.28277046E-01  7.71707258E-11  0.00000000E+00  0.00000000E+00
  2.18582760E-01  1.09816155E+00  1.00706889E+00  0.00000000E+00  0.00000000E+00
 -6.15646410E-03  0.00000000E+00  0.00000000E+00  1.01697940E-02 -9.27394742E-01
 -9.27394742E-01 -9.28266615E-01 -1.89179663E-10  0.00000000E+00  0.00000000E+00
 -2.14067453E-01 -1.09100702E+00 -1.02753971E+00  0.00000000E+00  0.00000000E+00
  6.84365041E-03  0.00000000E+00  0.00000000E+00 -1.13262144E-02  9.33103942E-01
  9.33103942E-01  9.32117643E-01 -8.25257335E-11  0.00000000E+00  0.00000000E+00
  2.14069909E-01  1.09101933E+00  1.02755093E+00  0.00000000E+00  0.00000000E+00
  6.84357631E-03  0.00000000E+00  0.00000000E+00 -1.13261038E-02 -9.33114307E-01
 -9.33114307E-01 -9.32128022E-01 -1.91902351E-10  0.00000000E+00  0.00000000E+00
Orthonormal basis                          R   N=         900
  1.20987045E-02  1.90739302E-01  2.02104953E-01  6.13534729E-17  0.00000000E+00
  1.78140257E-04  9.52953028E-18 -3.22222514E-18  7.45642168E-04  1.58447927E-01
  1.58447927E-01  1.58460452E-01  6.39057860E-28  1.91782882E-23 -1.28886553E-23
  1.20987045E-02  1.90739302E-01  2.02104953E-01  1.09711013E-19 -7.35952675E-20
 -1.78140257E-04  1.22887300E-19 -7.54310485E-20 -7.45642168E-04  1.58447927E-01
  1.58447927E-01  1.58460452E-01  2.14870515E-37 -8.78282069E-22  1.11653890E-22
  1.20890960E-02  1.90841895E-01  2.01969241E-01 -6.13639390E-17  0.00000000E+00
 -1.74367441E-04 -9.61963184E-18  3.23305157E-18 -7.30234344E-04  1.58527658E-01
  1.58527658E-01  1.58515665E-01 -6.43428260E-28 -1.90655809E-23  1.28133050E-23
 -1.20890960E-02 -1.90841895E-01 -2.01969241E-01 -1.09067732E-19  7.31652980E-20
 -1.74367441E-04 -1.22262569E-19  7.50081890E-20 -7.30234344E-04 -1.58527658E-01
 -1.58527658E-01 -1.58515665E-01 -2.13289310E-37  8.78354294E-22 -1.12007130E-22
  5.79800212E-04 -1.22283147E-03  8.88087906E-04  6.45413908E-15 -1.97209805E-15
  3.99364696E-01  6.53917276E-15 -2.02757537E-15  4.07996712E-01 -8.37983685E-04
 -8.37983685E-04 -3.98009101E-04  1.33575232E-24  3.79083367E-20 -2.57411193E-20
  5.79800212E-04 -1.22283147E-03  8.88087906E-04  2.16682338E-16 -1.47015311E-16
 -3.99364696E-01  2.28659134E-16 -1.50643632E-16 -4.07996712E-01 -8.37983685E-04
 -8.37983685E-04 -3.98009101E-04  3.83687650E-34 -1.11618942E-18  3.36954900E-19
 -8.40217202E-18 -6.73775080E-18 -5.79091802E-17  4.03254897E-01 -3.48217993E-02
 -1.77542457E-15  4.04006819E-01 -3.48867291E-02 -2.07816276E-15  1.51023247E-16
 -6.75456593E-17  2.80339869E-17  5.65767007E-17  7.06485864E-05 -6.10063489E-06
  4.44496335E-17  2.27900094E-17 -9.01094138E-17  4.03254897E-01 -3.48217993E-02
  5.01523722E-15  4.04006819E-01 -3.48867291E-02  4.94986103E-15 -2.22506243E-17
 -2.22506243E-17  2.26716085E-17  5.86860515E-21 -7.06485864E-05  6.10063489E-06
 -4.96070273E-19 -1.10565455E-17 -2.43896929E-17  3.48217993E-02  4.03254897E-01
  1.57495119E-15  3.48867291E-02  4.04006819E-01  1.68872558E-15 -3.36421223E-16
  2.87308374E-16  9.34250566E-17 -1.68670539E-16  6.10063489E-06  7.06485864E-05
  1.33354493E-16 -7.58676217E-17  6.18215898E-17  3.48217993E-02  4.03254897E-01
  5.06176122E-17  3.48867291E-02  4.04006819E-01  8.71912293E-18  1.20907477E-16
 -3.65183591E-17 -5.19870677E-17  3.89846764E-19 -6.10063489E-06 -7.06485864E-05
 -7.93817271E-19 -1.64190184E-17 -3.57074993E-17  1.05804034E-02  4.05638556E-01
  1.72952045E-15  1.05607099E-02  4.04883534E-01  1.87771303E-15  4.60970358E-17
 -9.80483164E-17  1.17103772E-16  2.36293768E-16 -1.85382839E-06 -7.10733079E-05
  2.26568103E-16 -8.57474151E-17  7.45094302E-17 -1.05804034E-02 -4.05638556E-01
  1.54957725E-17 -1.05607099E-02 -4.04883534E-01  2.36249564E-17  4.99703563E-17
  4.96201952E-18  3.54492460E-18  8.86395521E-19 -1.85382839E-06 -7.10733079E-05
 -7.80517676E-18 -7.15775219E-18 -5.26658990E-17  4.05638556E-01 -1.05804034E-02
 -1.71417698E-15  4.04883534E-01 -1.05607099E-02 -1.90511959E-15  1.22562965E-16
 -1.59783221E-17 -4.02327807E-18  1.04220636E-16 -7.10733079E-05  1.85382839E-06
 -1.11995333E-16  9.02881768E-17 -1.12658833E-16 -4.05638556E-01  1.05804034E-02
  4.52342870E-15 -4.04883534E-01  1.05607099E-02  4.50281804E-15 -2.22885264E-17
  2.15642057E-19  6.76769430E-17 -6.56394375E-21 -7.10733079E-05  1.85382839E-06
 -6.20360520E-04  1.22520815E-03 -9.12155817E-04 -3.02605673E-15 -1.44528083E-15
  4.11137437E-01 -2.81096538E-15 -1.47950093E-15  4.02431549E-01  8.28695544E-04
  8.28695544E-04  3.83066010E-04 -1.68252833E-24 -4.13330228E-20  2.80975377E-20
  6.20360520E-04 -1.22520815E-03  9.12155817E-04 -2.36060299E-16  1.60291258E-16
  4.11137437E-01 -2.41399925E-16  1.57402298E-16  4.02431549E-01 -8.28695544E-04
 -8.28695544E-04 -3.83066010E-04 -5.32800151E-34  5.07619805E-19  2.80365587E-19
  6.28447090E-01 -2.04283847E-01  1.12535324E-01 -1.28411892E-16 -1.28411892E-16
 -1.37971755E-03 -7.89440004E-18 -3.67381822E-17 -3.07649909E-04  1.81165973E-02
  1.81165973E-02  1.81560570E-02  0.00000000E+00 -1.21342067E-20  7.01909114E-22
  6.28447090E-01 -2.04283847E-01  1.12535324E-01 -6.92692610E-17  3.98440279E-18
  1.37971755E-03 -6.91164608E-17  3.80700333E-18  3.07649909E-04  1.81165973E-02
  1.81165973E-02  1.81560570E-02 -1.37723492E-33  6.86646696E-21  8.13075983E-20
  6.28542128E-01 -2.04154456E-01  1.12345029E-01  9.21967972E-17  1.44880681E-16
  1.40817282E-03 -4.53215690E-17  3.64170063E-17  3.13977070E-04  1.82504934E-02
  1.82504934E-02  1.82097833E-02 -2.51216336E-23  1.21436422E-20 -7.02115507E-22
 -6.28542128E-01  2.04154456E-01 -1.12345029E-01  6.93228911E-17 -3.98563952E-18