 Entering Gaussian System, Link 0=g16
 Input=C14H20_opt.gjf
 Output=C14H20_opt.log
 Initial command:
 /home/qingchun/software/g16A_modified_by_qingchun/g16/l1.exe "/scratch/qingchun/gaussian/Gau-3205.inp" -scrdir="/scratch/qingchun/gaussian/"
 Entering Link 1 = /home/qingchun/software/g16A_modified_by_qingchun/g16/l1.exe PID=      3206.
  
 Copyright (c) 1988,1990,1992,1993,1995,1998,2003,2009,2016,
            Gaussian, Inc.  All Rights Reserved.
  
 This is part of the Gaussian(R) 16 program.  It is based on
 the Gaussian(R) 09 system (copyright 2009, Gaussian, Inc.),
 the Gaussian(R) 03 system (copyright 2003, Gaussian, Inc.),
 the Gaussian(R) 98 system (copyright 1998, Gaussian, Inc.),
 the Gaussian(R) 94 system (copyright 1995, Gaussian, Inc.),
 the Gaussian 92(TM) system (copyright 1992, Gaussian, Inc.),
 the Gaussian 90(TM) system (copyright 1990, Gaussian, Inc.),
 the Gaussian 88(TM) system (copyright 1988, Gaussian, Inc.),
 the Gaussian 86(TM) system (copyright 1986, Carnegie Mellon
 University), and the Gaussian 82(TM) system (copyright 1983,
 Carnegie Mellon University). Gaussian is a federally registered
 trademark of Gaussian, Inc.
  
 This software contains proprietary and confidential information,
 including trade secrets, belonging to Gaussian, Inc.
  
 This software is provided under written license and may be
 used, copied, transmitted, or stored only in accord with that
 written license.
  
 The following legend is applicable only to US Government
 contracts under FAR:
  
                    RESTRICTED RIGHTS LEGEND
  
 Use, reproduction and disclosure by the US Government is
 subject to restrictions as set forth in subparagraphs (a)
 and (c) of the Commercial Computer Software - Restricted
 Rights clause in FAR 52.227-19.
  
 Gaussian, Inc.
 340 Quinnipiac St., Bldg. 40, Wallingford CT 06492
  
  
 ---------------------------------------------------------------
 Warning -- This program may not be used in any manner that
 competes with the business of Gaussian, Inc. or will provide
 assistance to any competitor of Gaussian, Inc.  The licensee
 of this program is prohibited from giving any competitor of
 Gaussian, Inc. access to this program.  By using this program,
 the user acknowledges that Gaussian, Inc. is engaged in the
 business of creating and licensing software in the field of
 computational chemistry and represents and warrants to the
 licensee that it is not a competitor of Gaussian, Inc. and that
 it will not use this program in any manner prohibited above.
 ---------------------------------------------------------------
  

 Cite this work as:
 Gaussian 16, Revision A.03,
 M. J. Frisch, G. W. Trucks, H. B. Schlegel, G. E. Scuseria, 
 M. A. Robb, J. R. Cheeseman, G. Scalmani, V. Barone, 
 G. A. Petersson, H. Nakatsuji, X. Li, M. Caricato, A. V. Marenich, 
 J. Bloino, B. G. Janesko, R. Gomperts, B. Mennucci, H. P. Hratchian, 
 J. V. Ortiz, A. F. Izmaylov, J. L. Sonnenberg, D. Williams-Young, 
 F. Ding, F. Lipparini, F. Egidi, J. Goings, B. Peng, A. Petrone, 
 T. Henderson, D. Ranasinghe, V. G. Zakrzewski, J. Gao, N. Rega, 
 G. Zheng, W. Liang, M. Hada, M. Ehara, K. Toyota, R. Fukuda, 
 J. Hasegawa, M. Ishida, T. Nakajima, Y. Honda, O. Kitao, H. Nakai, 
 T. Vreven, K. Throssell, J. A. Montgomery, Jr., J. E. Peralta, 
 F. Ogliaro, M. J. Bearpark, J. J. Heyd, E. N. Brothers, K. N. Kudin, 
 V. N. Staroverov, T. A. Keith, R. Kobayashi, J. Normand, 
 K. Raghavachari, A. P. Rendell, J. C. Burant, S. S. Iyengar, 
 J. Tomasi, M. Cossi, J. M. Millam, M. Klene, C. Adamo, R. Cammi, 
 J. W. Ochterski, R. L. Martin, K. Morokuma, O. Farkas, 
 J. B. Foresman, and D. J. Fox, Gaussian, Inc., Wallingford CT, 2016.
 
 ******************************************
 Gaussian 16:  ES64L-G16RevA.03 25-Dec-2016
                31-Oct-2019 
 ******************************************
 %nprocshared=24
 Will use up to   24 processors via shared memory.
 %mem=300GB
 %chk=C14H20_opt.chk
 ----------------------------------------------------
 # opt(z-matrix) freq b3lyp/cc-pVDZ geom=connectivity
 ----------------------------------------------------
 1/10=7,18=40,26=3,38=1,57=2/1,3;
 2/12=2,17=6,18=5,29=3,40=1/2;
 3/5=16,11=2,25=1,30=1,71=1,74=-5/1,2,3;
 4//1;
 5/5=2,38=5/2;
 6/7=2,8=2,9=2,10=2,28=1/1;
 7/29=1/1,2,3,16;
 1/10=7,18=40,26=3/3(2);
 2/29=3/2;
 99//99;
 2/29=3/2;
 3/5=16,11=2,25=1,30=1,71=1,74=-5/1,2,3;
 4/5=5,16=3,69=1/1;
 5/5=2,38=5/2;
 7//1,2,3,16;
 1/18=40,26=3/3(-5);
 2/29=3/2;
 6/7=2,8=2,9=2,10=2,19=2,28=1/1;
 99/9=1/99;
 -------------------
 Title Card Required
 -------------------
 Symbolic Z-matrix:
 Charge =  0 Multiplicity = 1
 C
 H                    1    B1
 H                    1    B2       2    A1
 C                    1    B3       3    A2       2    D1       0
 H                    4    B4       1    A3       3    D2       0
 C                    4    B5       1    A4       3    D3       0
 H                    6    B6       4    A5       1    D4       0
 H                    6    B7       4    A6       1    D5       0
 C                    6    B8       4    A7       1    D6       0
 H                    9    B9       6    A8       4    D7       0
 C                    9    B3       6    A9       4    D8       0
 H                    11   B11      9    A10      6    D9       0
 C                    11   B12      9    A11      6    D10      0
 H                    13   B13      11   A12      9    D11      0
 H                    13   B14      11   A13      9    D12      0
 C                    13   B15      11   A14      9    D13      0
 H                    16   B16      13   A15      11   D14      0
 C                    16   B3       13   A16      11   D15      0
 H                    18   B18      16   A17      13   D16      0
 C                    18   B19      16   A18      13   D17      0
 H                    20   B20      18   A19      16   D18      0
 H                    20   B21      18   A20      16   D19      0
 C                    20   B22      18   A21      16   D20      0
 H                    23   B23      20   A22      18   D21      0
 C                    23   B3       20   A23      18   D22      0
 H                    25   B25      23   A24      20   D23      0
 C                    25   B26      23   A25      20   D24      0
 H                    27   B27      25   A26      23   D25      0
 H                    27   B28      25   A27      23   D26      0
 C                    27   B29      25   A28      23   D27      0
 H                    30   B30      27   A29      25   D28      0
 C                    30   B3       27   A30      25   D29      0
 H                    32   B32      30   A31      27   D30      0
 H                    32   B33      30   A32      27   D31      0
       Variables:
  B1                    1.07                     
  B2                    1.07                     
  B3                    1.3552                   
  B4                    1.07                     
  B5                    1.54                     
  B6                    1.07                     
  B7                    1.07                     
  B8                    1.54                     
  B9                    1.07                     
  B11                   1.07                     
  B12                   1.54                     
  B13                   1.07                     
  B14                   1.07                     
  B15                   1.54                     
  B16                   1.07                     
  B18                   1.07                     
  B19                   1.54                     
  B20                   1.07                     
  B21                   1.07                     
  B22                   1.54                     
  B23                   1.07                     
  B25                   1.07                     
  B26                   1.54                     
  B27                   1.07                     
  B28                   1.07                     
  B29                   1.54                     
  B30                   1.07                     
  B32                   1.07                     
  B33                   1.07                     
  A1                  119.88653                  
  A2                  119.88653                  
  A3                  120.22695                  
  A4                  119.88653                  
  A5                  109.4712                   
  A6                  109.47123                  
  A7                  109.4712                   
  A8                  119.88653                  
  A9                  120.22695                  
  A10                 120.22695                  
  A11                 119.88653                  
  A12                 109.4712                   
  A13                 109.47123                  
  A14                 109.4712                   
  A15                 119.88653                  
  A16                 120.22695                  
  A17                 120.2247                   
  A18                 119.88878                  
  A19                 109.4712                   
  A20                 109.47123                  
  A21                 109.4712                   
  A22                 119.88653                  
  A23                 120.22695                  
  A24                 120.22695                  
  A25                 119.88653                  
  A26                 109.4712                   
  A27                 109.47123                  
  A28                 109.4712                   
  A29                 119.88653                  
  A30                 120.22695                  
  A31                 120.22482                  
  A32                 119.88866                  
  D1                  180.                       
  D2                    0.                       
  D3                  180.                       
  D4                  -60.01109                  
  D5                   59.9889                   
  D6                  179.98889                  
  D7                   -0.00241                  
  D8                  179.99759                  
  D9                    0.02421                  
  D10                -179.97579                  
  D11                 -60.11344                  
  D12                  59.88656                  
  D13                 179.88655                  
  D14                  -0.04293                  
  D15                 179.95707                  
  D16                   0.00238                  
  D17                 179.99765                  
  D18                  60.00213                  
  D19                 -59.99787                  
  D20                -179.99786                  
  D21                   0.0037                   
  D22                -179.9963                   
  D23                   0.                       
  D24                 180.                       
  D25                  59.9999                   
  D26                 -60.00009                  
  D27                 180.                       
  D28                  -0.00073                  
  D29                 179.99927                  
  D30                   0.00364                  
  D31                 179.99641                  
 
    12 tetrahedral angles replaced.
   12 tetrahedral angles replaced.

 GradGradGradGradGradGradGradGradGradGradGradGradGradGradGradGradGradGrad
 Berny optimization.
 Initialization pass.
                       ----------------------------
                       !    Initial Parameters    !
                       ! (Angstroms and Degrees)  !
 ----------------------                            ----------------------
 !      Name          Value   Derivative information (Atomic Units)     !
 ------------------------------------------------------------------------
 !       B1          1.07     estimate D2E/DX2                          !
 !       B2          1.07     estimate D2E/DX2                          !
 !       B3          1.3552   estimate D2E/DX2                          !
 !       B4          1.07     estimate D2E/DX2                          !
 !       B5          1.54     estimate D2E/DX2                          !
 !       B6          1.07     estimate D2E/DX2                          !
 !       B7          1.07     estimate D2E/DX2                          !
 !       B8          1.54     estimate D2E/DX2                          !
 !       B9          1.07     estimate D2E/DX2                          !
 !       B11         1.07     estimate D2E/DX2                          !
 !       B12         1.54     estimate D2E/DX2                          !
 !       B13         1.07     estimate D2E/DX2                          !
 !       B14         1.07     estimate D2E/DX2                          !
 !       B15         1.54     estimate D2E/DX2                          !
 !       B16         1.07     estimate D2E/DX2                          !
 !       B18         1.07     estimate D2E/DX2                          !
 !       B19         1.54     estimate D2E/DX2                          !
 !       B20         1.07     estimate D2E/DX2                          !
 !       B21         1.07     estimate D2E/DX2                          !
 !       B22         1.54     estimate D2E/DX2                          !
 !       B23         1.07     estimate D2E/DX2                          !
 !       B25         1.07     estimate D2E/DX2                          !
 !       B26         1.54     estimate D2E/DX2                          !
 !       B27         1.07     estimate D2E/DX2                          !
 !       B28         1.07     estimate D2E/DX2                          !
 !       B29         1.54     estimate D2E/DX2                          !
 !       B30         1.07     estimate D2E/DX2                          !
 !       B32         1.07     estimate D2E/DX2                          !
 !       B33         1.07     estimate D2E/DX2                          !
 !       A1        119.8865   estimate D2E/DX2                          !
 !       A2        119.8865   estimate D2E/DX2                          !
 !       A3        120.2269   estimate D2E/DX2                          !
 !       A4        119.8865   estimate D2E/DX2                          !
 !       A5        109.4712   estimate D2E/DX2                          !
 !       A6        109.4712   estimate D2E/DX2                          !
 !       A7        109.4712   estimate D2E/DX2                          !
 !       A8        119.8865   estimate D2E/DX2                          !
 !       A9        120.2269   estimate D2E/DX2                          !
 !       A10       120.2269   estimate D2E/DX2                          !
 !       A11       119.8865   estimate D2E/DX2                          !
 !       A12       109.4712   estimate D2E/DX2                          !
 !       A13       109.4712   estimate D2E/DX2                          !
 !       A14       109.4712   estimate D2E/DX2                          !
 !       A15       119.8865   estimate D2E/DX2                          !
 !       A16       120.2269   estimate D2E/DX2                          !
 !       A17       120.2247   estimate D2E/DX2                          !
 !       A18       119.8888   estimate D2E/DX2                          !
 !       A19       109.4712   estimate D2E/DX2                          !
 !       A20       109.4712   estimate D2E/DX2                          !
 !       A21       109.4712   estimate D2E/DX2                          !
 !       A22       119.8865   estimate D2E/DX2                          !
 !       A23       120.2269   estimate D2E/DX2                          !
 !       A24       120.2269   estimate D2E/DX2                          !
 !       A25       119.8865   estimate D2E/DX2                          !
 !       A26       109.4712   estimate D2E/DX2                          !
 !       A27       109.4712   estimate D2E/DX2                          !
 !       A28       109.4712   estimate D2E/DX2                          !
 !       A29       119.8865   estimate D2E/DX2                          !
 !       A30       120.2269   estimate D2E/DX2                          !
 !       A31       120.2248   estimate D2E/DX2                          !
 !       A32       119.8887   estimate D2E/DX2                          !
 !       D1        180.0      estimate D2E/DX2                          !
 !       D2          0.0      estimate D2E/DX2                          !
 !       D3        180.0      estimate D2E/DX2                          !
 !       D4        -60.0111   estimate D2E/DX2                          !
 !       D5         59.9889   estimate D2E/DX2                          !
 !       D6        179.9889   estimate D2E/DX2                          !
 !       D7         -0.0024   estimate D2E/DX2                          !
 !       D8        179.9976   estimate D2E/DX2                          !
 !       D9          0.0242   estimate D2E/DX2                          !
 !       D10      -179.9758   estimate D2E/DX2                          !
 !       D11       -60.1134   estimate D2E/DX2                          !
 !       D12        59.8866   estimate D2E/DX2                          !
 !       D13       179.8865   estimate D2E/DX2                          !
 !       D14        -0.0429   estimate D2E/DX2                          !
 !       D15       179.9571   estimate D2E/DX2                          !
 !       D16         0.0024   estimate D2E/DX2                          !
 !       D17       179.9977   estimate D2E/DX2                          !
 !       D18        60.0021   estimate D2E/DX2                          !
 !       D19       -59.9979   estimate D2E/DX2                          !
 !       D20      -179.9979   estimate D2E/DX2                          !
 !       D21         0.0037   estimate D2E/DX2                          !
 !       D22      -179.9963   estimate D2E/DX2                          !
 !       D23         0.0      estimate D2E/DX2                          !
 !       D24       180.0      estimate D2E/DX2                          !
 !       D25        59.9999   estimate D2E/DX2                          !
 !       D26       -60.0001   estimate D2E/DX2                          !
 !       D27       180.0      estimate D2E/DX2                          !
 !       D28        -0.0007   estimate D2E/DX2                          !
 !       D29       179.9993   estimate D2E/DX2                          !
 !       D30         0.0036   estimate D2E/DX2                          !
 !       D31       179.9964   estimate D2E/DX2                          !
 ------------------------------------------------------------------------
 Trust Radius=3.00D-01 FncErr=1.00D-07 GrdErr=1.00D-06 EigMax=2.50D+02 EigMin=1.00D-04
 Number of steps in this run=    102 maximum allowed number of steps=    184.
 GradGradGradGradGradGradGradGradGradGradGradGradGradGradGradGradGradGrad

 ---------------------------------------------------------------------------------------------------
                            Z-MATRIX (ANGSTROMS AND DEGREES)
   CD    Cent   Atom    N1       Length/X        N2       Alpha/Y        N3        Beta/Z          J
 ---------------------------------------------------------------------------------------------------
      1      1  C 
      2      2  H        1   1.070000(     1)
      3      3  H        1   1.070000(     2)      2  119.887(    34)
      4      4  C        1   1.355200(     3)      3  119.887(    35)      2  180.000(    66)      0
      5      5  H        4   1.070000(     4)      1  120.227(    36)      3    0.000(    67)      0
      6      6  C        4   1.540000(     5)      1  119.887(    37)      3  180.000(    68)      0
      7      7  H        6   1.070000(     6)      4  109.471(    38)      1  -60.011(    69)      0
      8      8  H        6   1.070000(     7)      4  109.471(    39)      1   59.989(    70)      0
      9      9  C        6   1.540000(     8)      4  109.471(    40)      1  179.989(    71)      0
     10     10  H        9   1.070000(     9)      6  119.887(    41)      4   -0.002(    72)      0
     11     11  C        9   1.355200(    10)      6  120.227(    42)      4  179.998(    73)      0
     12     12  H       11   1.070000(    11)      9  120.227(    43)      6    0.024(    74)      0
     13     13  C       11   1.540000(    12)      9  119.887(    44)      6 -179.976(    75)      0
     14     14  H       13   1.070000(    13)     11  109.471(    45)      9  -60.113(    76)      0
     15     15  H       13   1.070000(    14)     11  109.471(    46)      9   59.887(    77)      0
     16     16  C       13   1.540000(    15)     11  109.471(    47)      9  179.887(    78)      0
     17     17  H       16   1.070000(    16)     13  119.887(    48)     11   -0.043(    79)      0
     18     18  C       16   1.355200(    17)     13  120.227(    49)     11  179.957(    80)      0
     19     19  H       18   1.070000(    18)     16  120.225(    50)     13    0.002(    81)      0
     20     20  C       18   1.540000(    19)     16  119.889(    51)     13  179.998(    82)      0
     21     21  H       20   1.070000(    20)     18  109.471(    52)     16   60.002(    83)      0
     22     22  H       20   1.070000(    21)     18  109.471(    53)     16  -59.998(    84)      0
     23     23  C       20   1.540000(    22)     18  109.471(    54)     16 -179.998(    85)      0
     24     24  H       23   1.070000(    23)     20  119.887(    55)     18    0.004(    86)      0
     25     25  C       23   1.355200(    24)     20  120.227(    56)     18 -179.996(    87)      0
     26     26  H       25   1.070000(    25)     23  120.227(    57)     20    0.000(    88)      0
     27     27  C       25   1.540000(    26)     23  119.887(    58)     20  180.000(    89)      0
     28     28  H       27   1.070000(    27)     25  109.471(    59)     23   60.000(    90)      0
     29     29  H       27   1.070000(    28)     25  109.471(    60)     23  -60.000(    91)      0
     30     30  C       27   1.540000(    29)     25  109.471(    61)     23  180.000(    92)      0
     31     31  H       30   1.070000(    30)     27  119.887(    62)     25   -0.001(    93)      0
     32     32  C       30   1.355200(    31)     27  120.227(    63)     25  179.999(    94)      0
     33     33  H       32   1.070000(    32)     30  120.225(    64)     27    0.004(    95)      0
     34     34  H       32   1.070000(    33)     30  119.889(    65)     27  179.996(    96)      0
 ---------------------------------------------------------------------------------------------------
                         Z-Matrix orientation:                         
 ---------------------------------------------------------------------
 Center     Atomic      Atomic             Coordinates (Angstroms)
 Number     Number       Type             X           Y           Z
 ---------------------------------------------------------------------
      1          6           0        0.000000    0.000000    0.000000
      2          1           0        0.000000    0.000000    1.070000
      3          1           0        0.927705    0.000000   -0.533164
      4          6           0       -1.170944    0.000000   -0.682243
      5          1           0       -1.170944    0.000000   -1.752243
      6          6           0       -2.506146    0.000000    0.085114
      7          1           0       -2.564129   -0.873749    0.700013
      8          1           0       -2.563961    0.873554    0.700306
      9          6           0       -3.674684    0.000281   -0.917941
     10          1           0       -3.474999    0.000478   -1.969142
     11          6           0       -4.955041    0.000281   -0.473806
     12          1           0       -5.160968    0.000476    0.576191
     13          6           0       -6.117599   -0.000001   -1.483786
     14          1           0       -6.057242    0.874530   -2.097344
     15          1           0       -6.054852   -0.872770   -2.099608
     16          6           0       -7.457334   -0.002817   -0.724377
     17          1           0       -7.463689   -0.004907    0.345602
     18          6           0       -8.628279   -0.002658   -1.406619
     19          1           0       -8.628239   -0.000612   -2.476617
     20          6           0       -9.963508   -0.005540   -0.639316
     21          1           0      -10.022337    0.866850   -0.022570
     22          1           0      -10.020524   -0.880448   -0.025978
     23          6           0      -11.132009   -0.004796   -1.642414
     24          1           0      -10.932284   -0.002598   -2.693607
     25          6           0      -12.412381   -0.006915   -1.198331
     26          1           0      -12.618348   -0.009116   -0.148344
     27          6           0      -13.574901   -0.006152   -2.208355
     28          1           0      -13.512455   -0.878570   -2.824704
     29          1           0      -13.514196    0.868728   -2.821380
     30          6           0      -14.914666   -0.008930   -1.448998
     31          1           0      -14.921063   -0.010982   -0.379019
     32          6           0      -16.085584   -0.008783   -2.131286
     33          1           0      -16.085504   -0.006796   -3.201285
     34          1           0      -17.013328   -0.010779   -1.598195
 ---------------------------------------------------------------------
                    Distance matrix (angstroms):
                    1          2          3          4          5
     1  C    0.000000
     2  H    1.070000   0.000000
     3  H    1.070000   1.852234   0.000000
     4  C    1.355200   2.107479   2.103938   0.000000
     5  H    2.107479   3.055514   2.427032   1.070000   0.000000
     6  C    2.507591   2.692725   3.489068   1.540000   2.271265
     7  H    2.797895   2.734061   3.804874   2.148263   2.952619
     8  H    2.797753   2.733800   3.804770   2.148263   2.952726
     9  C    3.787601   4.177944   4.618446   2.514809   2.639086
    10  H    3.994138   4.616492   4.630965   2.639086   2.314241
    11  C    4.977642   5.189968   5.883045   3.789832   3.994219
    12  H    5.193033   5.184539   6.188910   4.183772   4.619729
    13  C    6.294969   6.629241   7.109148   5.011173   4.953934
    14  H    6.469454   6.891085   7.211168   5.161707   4.975922
    15  H    6.467713   6.889802   7.209132   5.159768   4.973424
    16  C    7.492433   7.670178   8.387219   6.286531   6.369867
    17  H    7.471688   7.498762   8.437283   6.376137   6.633221
    18  C    8.742184   8.976684   9.595820   7.492434   7.465340
    19  H    8.976644   9.328719   9.751568   7.670138   7.492393
    20  C    9.984000  10.109070  10.891732   8.792671   8.862721
    21  H   10.059780  10.118912  10.996161   8.918170   9.060373
    22  H   10.059163  10.118659  10.995278   8.917451   9.059263
    23  C   11.252518  11.457698  12.110622  10.007235   9.961671
    24  H   11.259234  11.561988  12.055159   9.966410   9.806626
    25  C   12.470094  12.617947  13.356661  11.253279  11.255077
    26  H   12.619223  12.677032  13.551521  11.459851  11.559222
    27  C   13.753356  13.965156  14.599037  12.497487  12.412341
    28  H   13.832472  14.089962  14.647227  12.556866  12.419136
    29  H   13.832873  14.090104  14.647837  12.557327  12.419887
    30  C   14.984890  15.125894  15.868823  13.765096  13.747069
    31  H   14.925880  14.991261  15.849521  13.753466  13.818525
    32  C   16.226166  16.401046  17.088185  14.984868  14.919458
    33  H   16.400967  16.642937  17.221155  15.125796  14.984787
    34  H   17.088232  17.221287  17.972620  15.868844  15.843136
                    6          7          8          9         10
     6  C    0.000000
     7  H    1.070000   0.000000
     8  H    1.070000   1.747303   0.000000
     9  C    1.540000   2.148263   2.148263   0.000000
    10  H    2.271265   2.952684   2.952661   1.070000   0.000000
    11  C    2.511867   2.803255   2.803285   1.355200   2.103938
    12  H    2.699859   2.742841   2.742648   2.107479   3.053066
    13  C    3.937517   4.261403   4.261654   2.507591   2.686802
    14  H    4.258898   4.804531   4.475473   2.798550   2.729173
    15  H    4.257705   4.474709   4.803695   2.797098   2.726761
    16  C    5.016926   5.170189   5.171349   3.787600   4.172343
    17  H    4.964384   4.988605   4.990475   3.994136   4.611694
    18  C    6.301253   6.478473   6.479416   4.977641   5.183892
    19  H    6.636451   6.901215   6.901628   5.192993   5.178167
    20  C    7.492469   7.569571   7.571043   6.294996   6.623385
    21  H    7.566780   7.692637   7.493328   6.468796   6.885302
    22  H    7.566598   7.491657   7.694436   6.468459   6.884463
    23  C    8.797152   8.924718   8.925877   7.492434   7.663980
    24  H    8.872491   9.072021   9.072768   7.471663   7.492393
    25  C    9.989033  10.066934  10.068338   8.742197   8.970563
    26  H   10.114901  10.126925  10.128673   8.976719   9.322888
    27  C   11.303865  11.421401  11.422565   9.983962  10.102737
    28  H   11.418308  11.501716  11.634653  10.059317  10.112133
    29  H   11.418387  11.633589  11.502606  10.059487  10.112648
    30  C   12.502997  12.565902  12.567346  11.252524  11.451490
    31  H   12.423595  12.433925  12.435647  11.259289  11.555995
    32  C   13.759129  13.841754  13.843075  12.470073  12.611631
    33  H   13.971379  14.099621  14.100694  12.619119  12.670559
    34  H   14.604519  14.656255  14.657741  13.355983  13.543415
                   11         12         13         14         15
    11  C    0.000000
    12  H    1.070000   0.000000
    13  C    1.540000   2.271265   0.000000
    14  H    2.148263   2.952129   1.070000   0.000000
    15  H    2.148263   2.953216   1.070000   1.747303   0.000000
    16  C    2.514809   2.639087   1.540000   2.148263   2.148263
    17  H    2.639086   2.314243   2.271265   2.952878   2.952467
    18  C    3.789832   3.994219   2.511867   2.802997   2.803543
    19  H    4.183735   4.619697   2.699820   2.742216   2.743194
    20  C    5.011205   4.953976   3.937535   4.261371   4.261706
    21  H    5.160625   4.974135   4.258352   4.475123   4.804300
    22  H    5.160946   4.975331   4.258312   4.803968   4.475104
    23  C    6.286542   6.369895   5.016921   5.170438   5.171066
    24  H    6.376124   6.633224   4.964359   4.989079   4.989927
    25  C    7.492457   7.465385   6.301255   6.478654   6.479211
    26  H    7.670221   7.492500   6.636507   6.901271   6.901652
    27  C    8.792650   8.862731   7.492422   7.569882   7.570600
    28  H    8.917872   9.060140   7.566627   7.693023   7.492772
    29  H    8.917648   9.059457   7.566604   7.492024   7.693867
    30  C   10.007258   9.961731   8.797140   8.924954   8.925570
    31  H    9.966480   9.806733   8.872520   9.072160   9.072640
    32  C   11.253280  11.255121   9.988997  10.067226  10.067922
    33  H   11.459773  11.559189  10.114790  10.127263  10.128059
    34  H   12.110602  12.050166  10.896335  11.003124  11.003756
                   16         17         18         19         20
    16  C    0.000000
    17  H    1.070000   0.000000
    18  C    1.355200   2.103938   0.000000
    19  H    2.107456   3.053050   1.070000   0.000000
    20  C    2.507619   2.686850   1.540000   2.271265   0.000000
    21  H    2.797873   2.728038   2.148263   2.952685   1.070000
    22  H    2.797846   2.728012   2.148263   2.952660   1.070000
    23  C    3.787616   4.172383   2.514809   2.639086   1.540000
    24  H    3.994139   4.611718   2.639086   2.314241   2.271265
    25  C    4.977664   5.183945   3.789832   3.994219   2.511867
    26  H    5.193065   5.178273   4.183772   4.619729   2.699859
    27  C    6.294984   6.623413   5.011173   4.953934   3.937517
    28  H    6.468602   6.884889   5.160752   4.974690   4.258301
    29  H    6.468585   6.884886   5.160722   4.974655   4.258301
    30  C    7.492457   7.664050   6.286533   6.369869   5.016927
    31  H    7.471719   7.492499   6.376140   6.633224   4.964386
    32  C    8.742204   8.970622   7.492435   7.465341   6.301253
    33  H    8.976659   9.322881   7.670140   7.492395   6.636454
    34  H    9.595866   9.745460   8.387241   8.430982   7.114734
                   21         22         23         24         25
    21  H    0.000000
    22  H    1.747303   0.000000
    23  C    2.148263   2.148263   0.000000
    24  H    2.952690   2.952655   1.070000   0.000000
    25  C    2.803246   2.803293   1.355200   2.103938   0.000000
    26  H    2.742701   2.742787   2.107479   3.053066   1.070000
    27  C    4.261514   4.261544   2.507591   2.686802   1.540000
    28  H    4.804099   4.475092   2.797823   2.727965   2.148263
    29  H    4.475089   4.804127   2.797824   2.727968   2.148263
    30  C    5.170741   5.170798   3.787601   4.172344   2.514809
    31  H    4.989505   4.989578   3.994138   4.611697   2.639086
    32  C    6.478918   6.478972   4.977642   5.183893   3.789832
    33  H    6.901411   6.901436   5.192995   5.178169   4.183737
    34  H    7.219888   7.219938   5.881489   6.178924   4.618292
                   26         27         28         29         30
    26  H    0.000000
    27  C    2.271265   0.000000
    28  H    2.952673   1.070000   0.000000
    29  H    2.952672   1.070000   1.747303   0.000000
    30  C    2.639086   1.540000   2.148264   2.148262   0.000000
    31  H    2.314241   2.271265   2.952670   2.952675   1.070000
    32  C    3.994219   2.511867   2.803275   2.803264   1.355200
    33  H    4.619699   2.699822   2.742697   2.742717   2.107457
    34  H    4.627950   3.492148   3.809659   3.809677   2.103960
                   31         32         33         34
    31  H    0.000000
    32  C    2.103938   0.000000
    33  H    3.053051   1.070000   0.000000
    34  H    2.421562   1.070000   1.852234   0.000000
 Stoichiometry    C14H20
 Framework group  C1[X(C14H20)]
 Deg. of freedom    96
 Full point group                 C1      NOp   1
 Largest Abelian subgroup         C1      NOp   1
 Largest concise Abelian subgroup C1      NOp   1
                         Standard orientation:                         
 ---------------------------------------------------------------------
 Center     Atomic      Atomic             Coordinates (Angstroms)
 Number     Number       Type             X           Y           Z
 ---------------------------------------------------------------------
      1          6           0       -8.110924    0.147519   -0.001594
      2          1           0       -8.231735    1.210676   -0.000190
      3          1           0       -8.972498   -0.486979   -0.003019
      4          6           0       -6.870437   -0.398154   -0.001574
      5          1           0       -6.749625   -1.461311   -0.002978
      6          6           0       -5.630414    0.515049    0.000476
      7          1           0       -5.641679    1.133778   -0.872420
      8          1           0       -5.642977    1.131619    0.874881
      9          6           0       -4.356096   -0.349655    0.000355
     10          1           0       -4.435816   -1.416680   -0.000984
     11          6           0       -3.134073    0.236199    0.001938
     12          1           0       -3.048015    1.302731    0.003671
     13          6           0       -1.864914   -0.636060    0.001239
     14          1           0       -1.856159   -1.253727    0.874916
     15          1           0       -1.857180   -1.253813   -0.872386
     16          6           0       -0.619488    0.269761    0.000466
     17          1           0       -0.733980    1.333618   -0.000215
     18          6           0        0.621000   -0.275911    0.000645
     19          1           0        0.741769   -1.339073    0.001287
     20          6           0        1.861058    0.637245   -0.000186
     21          1           0        1.849327    1.255475    0.873057
     22          1           0        1.849009    1.254316   -0.874245
     23          6           0        3.135343   -0.227508    0.000154
     24          1           0        3.055582   -1.294530    0.000817
     25          6           0        4.357389    0.358301   -0.000381
     26          1           0        4.443489    1.424831   -0.001044
     27          6           0        5.626514   -0.514008   -0.000035
     28          1           0        5.634605   -1.132252   -0.873310
     29          1           0        5.634863   -1.131184    0.873992
     30          6           0        6.871976    0.391764   -0.000770
     31          1           0        6.757525    1.455625   -0.001413
     32          6           0        8.112442   -0.153956   -0.000603
     33          1           0        8.233172   -1.217123   -0.000020
     34          1           0        8.974064    0.480477   -0.001174
 ---------------------------------------------------------------------
 Rotational constants (GHZ):           8.0330607           0.1040915           0.1030178
 Standard basis: CC-pVDZ (5D, 7F)
 There are   310 symmetry adapted cartesian basis functions of A   symmetry.
 There are   296 symmetry adapted basis functions of A   symmetry.
   296 basis functions,   602 primitive gaussians,   310 cartesian basis functions
    52 alpha electrons       52 beta electrons
       nuclear repulsion energy       706.9374552238 Hartrees.
 NAtoms=   34 NActive=   34 NUniq=   34 SFac= 1.00D+00 NAtFMM=   60 NAOKFM=F Big=F
 Integral buffers will be    131072 words long.
 Raffenetti 2 integral format.
 Two-electron integral symmetry is turned on.
 One-electron integrals computed using PRISM.
 NBasis=   296 RedAO= T EigKep=  7.46D-04  NBF=   296
 NBsUse=   296 1.00D-06 EigRej= -1.00D+00 NBFU=   296
 ExpMin= 1.22D-01 ExpMax= 6.67D+03 ExpMxC= 2.28D+02 IAcc=3 IRadAn=         5 AccDes= 0.00D+00
 Harris functional with IExCor=  402 and IRadAn=       5 diagonalized for initial guess.
 HarFok:  IExCor=  402 AccDes= 0.00D+00 IRadAn=         5 IDoV= 1 UseB2=F ITyADJ=14
 ICtDFT=  3500011 ScaDFX=  1.000000  1.000000  1.000000  1.000000
 FoFCou: FMM=F IPFlag=           0 FMFlag=      100000 FMFlg1=           0
         NFxFlg=           0 DoJE=T BraDBF=F KetDBF=T FulRan=T
         wScrn=  0.000000 ICntrl=       500 IOpCl=  0 I1Cent=   200000004 NGrid=           0
         NMat0=    1 NMatS0=      1 NMatT0=    0 NMatD0=    1 NMtDS0=    0 NMtDT0=    0
 Petite list used in FoFCou.
 Requested convergence on RMS density matrix=1.00D-08 within 128 cycles.
 Requested convergence on MAX density matrix=1.00D-06.
 Requested convergence on             energy=1.00D-06.
 No special actions if energy rises.
 Integral accuracy reduced to 1.0D-05 until final iterations.
 Initial convergence to 1.0D-05 achieved.  Increase integral accuracy.
 SCF Done:  E(RB3LYP) =  -545.399068065     A.U. after   13 cycles
            NFock= 13  Conv=0.15D-08     -V/T= 2.0073

 **********************************************************************

            Population analysis using the SCF density.

 **********************************************************************

 Orbital symmetries:
       Occupied  (A) (A) (A) (A) (A) (A) (A) (A) (A) (A) (A) (A)
                 (A) (A) (A) (A) (A) (A) (A) (A) (A) (A) (A) (A)
                 (A) (A) (A) (A) (A) (A) (A) (A) (A) (A) (A) (A)
                 (A) (A) (A) (A) (A) (A) (A) (A) (A) (A) (A) (A)
                 (A) (A) (A) (A)
       Virtual   (A) (A) (A) (A) (A) (A) (A) (A) (A) (A) (A) (A)
                 (A) (A) (A) (A) (A) (A) (A) (A) (A) (A) (A) (A)
                 (A) (A) (A) (A) (A) (A) (A) (A) (A) (A) (A) (A)
                 (A) (A) (A) (A) (A) (A) (A) (A) (A) (A) (A) (A)
                 (A) (A) (A) (A) (A) (A) (A) (A) (A) (A) (A) (A)
                 (A) (A) (A) (A) (A) (A) (A) (A) (A) (A) (A) (A)
                 (A) (A) (A) (A) (A) (A) (A) (A) (A) (A) (A) (A)
                 (A) (A) (A) (A) (A) (A) (A) (A) (A) (A) (A) (A)
                 (A) (A) (A) (A) (A) (A) (A) (A) (A) (A) (A) (A)
                 (A) (A) (A) (A) (A) (A) (A) (A) (A) (A) (A) (A)
                 (A) (A) (A) (A) (A) (A) (A) (A) (A) (A) (A) (A)
                 (A) (A) (A) (A) (A) (A) (A) (A) (A) (A) (A) (A)
                 (A) (A) (A) (A) (A) (A) (A) (A) (A) (A) (A) (A)
                 (A) (A) (A) (A) (A) (A) (A) (A) (A) (A) (A) (A)
                 (A) (A) (A) (A) (A) (A) (A) (A) (A) (A) (A) (A)
                 (A) (A) (A) (A) (A) (A) (A) (A) (A) (A) (A) (A)
                 (A) (A) (A) (A) (A) (A) (A) (A) (A) (A) (A) (A)
                 (A) (A) (A) (A) (A) (A) (A) (A) (A) (A) (A) (A)
                 (A) (A) (A) (A) (A) (A) (A) (A) (A) (A) (A) (A)
                 (A) (A) (A) (A) (A) (A) (A) (A) (A) (A) (A) (A)
                 (A) (A) (A) (A)
 The electronic state is 1-A.
 Alpha  occ. eigenvalues --  -10.18941 -10.18929 -10.18678 -10.18678 -10.18479
 Alpha  occ. eigenvalues --  -10.18478 -10.18089 -10.18088 -10.18021 -10.18019
 Alpha  occ. eigenvalues --  -10.18011 -10.17943 -10.17485 -10.17475  -0.81527
 Alpha  occ. eigenvalues --   -0.80746  -0.79313  -0.77311  -0.74873  -0.71823
 Alpha  occ. eigenvalues --   -0.68522  -0.64997  -0.61629  -0.57147  -0.56693
 Alpha  occ. eigenvalues --   -0.55939  -0.54944  -0.53743  -0.46721  -0.46021
 Alpha  occ. eigenvalues --   -0.45269  -0.43929  -0.43667  -0.43521  -0.42830
 Alpha  occ. eigenvalues --   -0.42361  -0.42123  -0.41476  -0.39436  -0.38969
 Alpha  occ. eigenvalues --   -0.37333  -0.37203  -0.34948  -0.34930  -0.34495
 Alpha  occ. eigenvalues --   -0.33050  -0.30908  -0.26292  -0.25941  -0.24789
 Alpha  occ. eigenvalues --   -0.23528  -0.22501
 Alpha virt. eigenvalues --   -0.01400  -0.00644   0.00638   0.02127   0.03424
 Alpha virt. eigenvalues --    0.06748   0.07594   0.08704   0.08784   0.09085
 Alpha virt. eigenvalues --    0.09125   0.09509   0.09802   0.11271   0.11767
 Alpha virt. eigenvalues --    0.13092   0.13906   0.14395   0.14885   0.15214
 Alpha virt. eigenvalues --    0.15410   0.16654   0.17335   0.17766   0.17999
 Alpha virt. eigenvalues --    0.19738   0.22099   0.24797   0.25108   0.25854
 Alpha virt. eigenvalues --    0.28440   0.29509   0.30070   0.31291   0.31960
 Alpha virt. eigenvalues --    0.33610   0.36418   0.38037   0.40569   0.41831
 Alpha virt. eigenvalues --    0.46247   0.47185   0.47485   0.47499   0.47925
 Alpha virt. eigenvalues --    0.48571   0.48917   0.49308   0.50471   0.50888
 Alpha virt. eigenvalues --    0.50914   0.51482   0.51826   0.52031   0.52332
 Alpha virt. eigenvalues --    0.54553   0.54600   0.54617   0.55732   0.57008
 Alpha virt. eigenvalues --    0.57284   0.57428   0.58539   0.59592   0.60896
 Alpha virt. eigenvalues --    0.62730   0.65236   0.65342   0.66022   0.66369
 Alpha virt. eigenvalues --    0.67002   0.67332   0.67809   0.68409   0.68760
 Alpha virt. eigenvalues --    0.68839   0.69109   0.69152   0.69359   0.69498
 Alpha virt. eigenvalues --    0.69537   0.69987   0.70391   0.70586   0.70965
 Alpha virt. eigenvalues --    0.70992   0.73998   0.74194   0.74812   0.75442
 Alpha virt. eigenvalues --    0.78811   0.79480   0.82206   0.82601   0.84276
 Alpha virt. eigenvalues --    0.85580   0.87497   0.89032   0.89525   0.92089
 Alpha virt. eigenvalues --    0.94866   0.96382   0.96989   0.98150   0.99468
 Alpha virt. eigenvalues --    0.99517   1.01969   1.02087   1.02413   1.02596
 Alpha virt. eigenvalues --    1.02928   1.03723   1.04333   1.05254   1.08191
 Alpha virt. eigenvalues --    1.11613   1.12948   1.14373   1.15843   1.20092
 Alpha virt. eigenvalues --    1.23452   1.23713   1.30241   1.30459   1.30921
 Alpha virt. eigenvalues --    1.31836   1.33952   1.34646   1.35606   1.35629
 Alpha virt. eigenvalues --    1.36302   1.37026   1.39333   1.39949   1.40080
 Alpha virt. eigenvalues --    1.40939   1.45909   1.46808   1.46993   1.47043
 Alpha virt. eigenvalues --    1.47457   1.50627   1.51256   1.52403   1.53359
 Alpha virt. eigenvalues --    1.54510   1.54759   1.55285   1.56907   1.57257
 Alpha virt. eigenvalues --    1.57488   1.59379   1.59745   1.60681   1.61491
 Alpha virt. eigenvalues --    1.65804   1.66390   1.66558   1.67465   1.67985
 Alpha virt. eigenvalues --    1.68328   1.69072   1.69212   1.70147   1.71270
 Alpha virt. eigenvalues --    1.72129   1.72319   1.73142   1.74064   1.75653
 Alpha virt. eigenvalues --    1.75729   1.79384   1.80824   1.81331   1.82271
 Alpha virt. eigenvalues --    1.82702   1.85703   1.86809   1.87244   1.88468
 Alpha virt. eigenvalues --    1.89101   1.89121   1.89848   1.92496   1.93653
 Alpha virt. eigenvalues --    1.93965   1.96315   1.97200   1.98046   1.99403
 Alpha virt. eigenvalues --    2.00262   2.00406   2.00507   2.01277   2.02811
 Alpha virt. eigenvalues --    2.04141   2.06525   2.08139   2.09031   2.11902
 Alpha virt. eigenvalues --    2.14656   2.15691   2.16365   2.17399   2.17804
 Alpha virt. eigenvalues --    2.19188   2.22716   2.23335   2.23464   2.23496
 Alpha virt. eigenvalues --    2.26724   2.26866   2.28802   2.28887   2.29412
 Alpha virt. eigenvalues --    2.29504   2.31151   2.31734   2.32401   2.33698
 Alpha virt. eigenvalues --    2.41612   2.41889   2.42548   2.42849   2.50554
 Alpha virt. eigenvalues --    2.50855   2.51478   2.51952   2.53353   2.55006
 Alpha virt. eigenvalues --    2.55090   2.56154   2.57486   2.58497   2.66359
 Alpha virt. eigenvalues --    2.70878   2.74183   2.77472   2.83883   2.91255
 Alpha virt. eigenvalues --    2.99387   3.03359   3.06493   3.06891
          Condensed to atoms (all electrons):
               1          2          3          4          5          6
     1  C    4.617812   0.366221   0.357537   0.702566  -0.042866  -0.039931
     2  H    0.366221   0.703423  -0.059653  -0.002167   0.011857  -0.019702
     3  H    0.357537  -0.059653   0.700246   0.008962  -0.017586   0.008081
     4  C    0.702566  -0.002167   0.008962   4.678132   0.400221   0.375037
     5  H   -0.042866   0.011857  -0.017586   0.400221   0.733178  -0.071618
     6  C   -0.039931  -0.019702   0.008081   0.375037  -0.071618   4.663811
     7  H   -0.008530   0.002200  -0.000083  -0.018070   0.004446   0.371584
     8  H   -0.008535   0.002203  -0.000083  -0.018064   0.004450   0.371578
     9  C    0.003290   0.001230  -0.000327  -0.021553  -0.000218   0.360103
    10  H    0.001324   0.000059  -0.000046  -0.001577   0.001163  -0.073756
    11  C   -0.000604  -0.000011   0.000017   0.004129   0.001800  -0.029224
    12  H   -0.000009   0.000011   0.000000   0.000830   0.000054  -0.014179
    13  C    0.000004   0.000000   0.000000  -0.000249  -0.000035   0.005474
    14  H    0.000000   0.000000   0.000000   0.000008  -0.000002   0.000090
    15  H    0.000000   0.000000   0.000000   0.000008  -0.000002   0.000092
    16  C    0.000000   0.000000   0.000000   0.000006   0.000002  -0.000253
    17  H    0.000000   0.000000   0.000000   0.000002   0.000000  -0.000032
    18  C    0.000000   0.000000   0.000000   0.000000   0.000000   0.000004
    19  H    0.000000   0.000000   0.000000   0.000000   0.000000   0.000000
    20  C    0.000000   0.000000   0.000000   0.000000   0.000000   0.000000
    21  H    0.000000   0.000000   0.000000   0.000000   0.000000   0.000000
    22  H    0.000000   0.000000   0.000000   0.000000   0.000000   0.000000
    23  C    0.000000   0.000000   0.000000   0.000000   0.000000   0.000000
    24  H    0.000000   0.000000   0.000000   0.000000   0.000000   0.000000
    25  C    0.000000   0.000000   0.000000   0.000000   0.000000   0.000000
    26  H    0.000000   0.000000   0.000000   0.000000   0.000000   0.000000
    27  C    0.000000   0.000000   0.000000   0.000000   0.000000   0.000000
    28  H    0.000000   0.000000   0.000000   0.000000   0.000000   0.000000
    29  H    0.000000   0.000000   0.000000   0.000000   0.000000   0.000000
    30  C    0.000000   0.000000   0.000000   0.000000   0.000000   0.000000
    31  H    0.000000   0.000000   0.000000   0.000000   0.000000   0.000000
    32  C    0.000000   0.000000   0.000000   0.000000   0.000000   0.000000
    33  H    0.000000   0.000000   0.000000   0.000000   0.000000   0.000000
    34  H    0.000000   0.000000   0.000000   0.000000   0.000000   0.000000
               7          8          9         10         11         12
     1  C   -0.008530  -0.008535   0.003290   0.001324  -0.000604  -0.000009
     2  H    0.002200   0.002203   0.001230   0.000059  -0.000011   0.000011
     3  H   -0.000083  -0.000083  -0.000327  -0.000046   0.000017   0.000000
     4  C   -0.018070  -0.018064  -0.021553  -0.001577   0.004129   0.000830
     5  H    0.004446   0.004450  -0.000218   0.001163   0.001800   0.000054
     6  C    0.371584   0.371578   0.360103  -0.073756  -0.029224  -0.014179
     7  H    0.662172  -0.033355  -0.016008   0.004351  -0.009633   0.001856
     8  H   -0.033355   0.662190  -0.016038   0.004349  -0.009606   0.001857
     9  C   -0.016008  -0.016038   4.840794   0.394139   0.592102  -0.042799
    10  H    0.004351   0.004349   0.394139   0.742975  -0.037073   0.012178
    11  C   -0.009633  -0.009606   0.592102  -0.037073   4.819660   0.396780
    12  H    0.001856   0.001857  -0.042799   0.012178   0.396780   0.744861
    13  C    0.000105   0.000105  -0.028422  -0.014544   0.363884  -0.073379
    14  H   -0.000046   0.000083  -0.009820   0.001886  -0.015510   0.004385
    15  H    0.000083  -0.000046  -0.009863   0.001907  -0.015474   0.004416
    16  C    0.000008   0.000008   0.003656   0.000990  -0.021525  -0.000102
    17  H   -0.000002  -0.000002   0.001662   0.000052  -0.000542   0.001065
    18  C    0.000000   0.000000  -0.000572  -0.000009   0.004156   0.001735
    19  H    0.000000   0.000000  -0.000010   0.000009   0.000921   0.000052
    20  C    0.000000   0.000000   0.000004   0.000000  -0.000256  -0.000032
    21  H    0.000000   0.000000   0.000000   0.000000   0.000008  -0.000002
    22  H    0.000000   0.000000   0.000000   0.000000   0.000008  -0.000002
    23  C    0.000000   0.000000   0.000000   0.000000   0.000006   0.000002
    24  H    0.000000   0.000000   0.000000   0.000000   0.000002   0.000000
    25  C    0.000000   0.000000   0.000000   0.000000   0.000000   0.000000
    26  H    0.000000   0.000000   0.000000   0.000000   0.000000   0.000000
    27  C    0.000000   0.000000   0.000000   0.000000   0.000000   0.000000
    28  H    0.000000   0.000000   0.000000   0.000000   0.000000   0.000000
    29  H    0.000000   0.000000   0.000000   0.000000   0.000000   0.000000
    30  C    0.000000   0.000000   0.000000   0.000000   0.000000   0.000000
    31  H    0.000000   0.000000   0.000000   0.000000   0.000000   0.000000
    32  C    0.000000   0.000000   0.000000   0.000000   0.000000   0.000000
    33  H    0.000000   0.000000   0.000000   0.000000   0.000000   0.000000
    34  H    0.000000   0.000000   0.000000   0.000000   0.000000   0.000000
              13         14         15         16         17         18
     1  C    0.000004   0.000000   0.000000   0.000000   0.000000   0.000000
     2  H    0.000000   0.000000   0.000000   0.000000   0.000000   0.000000
     3  H    0.000000   0.000000   0.000000   0.000000   0.000000   0.000000
     4  C   -0.000249   0.000008   0.000008   0.000006   0.000002   0.000000
     5  H   -0.000035  -0.000002  -0.000002   0.000002   0.000000   0.000000
     6  C    0.005474   0.000090   0.000092  -0.000253  -0.000032   0.000004
     7  H    0.000105  -0.000046   0.000083   0.000008  -0.000002   0.000000
     8  H    0.000105   0.000083  -0.000046   0.000008  -0.000002   0.000000
     9  C   -0.028422  -0.009820  -0.009863   0.003656   0.001662  -0.000572
    10  H   -0.014544   0.001886   0.001907   0.000990   0.000052  -0.000009
    11  C    0.363884  -0.015510  -0.015474  -0.021525  -0.000542   0.004156
    12  H   -0.073379   0.004385   0.004416  -0.000102   0.001065   0.001735
    13  C    4.657233   0.368640   0.368680   0.364056  -0.073909  -0.030653
    14  H    0.368640   0.667436  -0.034781  -0.015113   0.004411  -0.009836
    15  H    0.368680  -0.034781   0.667427  -0.015166   0.004390  -0.009803
    16  C    0.364056  -0.015113  -0.015166   4.822054   0.395115   0.598137
    17  H   -0.073909   0.004411   0.004390   0.395115   0.745575  -0.040234
    18  C   -0.030653  -0.009836  -0.009803   0.598137  -0.040234   4.821917
    19  H   -0.014351   0.001880   0.001870  -0.041142   0.012226   0.395972
    20  C    0.005491   0.000093   0.000092  -0.029812  -0.014496   0.364263
    21  H    0.000095   0.000083  -0.000046  -0.009943   0.001904  -0.015256
    22  H    0.000096  -0.000046   0.000083  -0.009932   0.001900  -0.015273
    23  C   -0.000259   0.000008   0.000008   0.004043   0.000968  -0.021527
    24  H   -0.000032  -0.000002  -0.000002   0.001713   0.000053  -0.000376
    25  C    0.000004   0.000000   0.000000  -0.000571  -0.000009   0.003770
    26  H    0.000000   0.000000   0.000000  -0.000010   0.000009   0.000942
    27  C    0.000000   0.000000   0.000000   0.000004   0.000000  -0.000250
    28  H    0.000000   0.000000   0.000000   0.000000   0.000000   0.000008
    29  H    0.000000   0.000000   0.000000   0.000000   0.000000   0.000008
    30  C    0.000000   0.000000   0.000000   0.000000   0.000000   0.000005
    31  H    0.000000   0.000000   0.000000   0.000000   0.000000   0.000002
    32  C    0.000000   0.000000   0.000000   0.000000   0.000000   0.000000
    33  H    0.000000   0.000000   0.000000   0.000000   0.000000   0.000000
    34  H    0.000000   0.000000   0.000000   0.000000   0.000000   0.000000
              19         20         21         22         23         24
     1  C    0.000000   0.000000   0.000000   0.000000   0.000000   0.000000
     2  H    0.000000   0.000000   0.000000   0.000000   0.000000   0.000000
     3  H    0.000000   0.000000   0.000000   0.000000   0.000000   0.000000
     4  C    0.000000   0.000000   0.000000   0.000000   0.000000   0.000000
     5  H    0.000000   0.000000   0.000000   0.000000   0.000000   0.000000
     6  C    0.000000   0.000000   0.000000   0.000000   0.000000   0.000000
     7  H    0.000000   0.000000   0.000000   0.000000   0.000000   0.000000
     8  H    0.000000   0.000000   0.000000   0.000000   0.000000   0.000000
     9  C   -0.000010   0.000004   0.000000   0.000000   0.000000   0.000000
    10  H    0.000009   0.000000   0.000000   0.000000   0.000000   0.000000
    11  C    0.000921  -0.000256   0.000008   0.000008   0.000006   0.000002
    12  H    0.000052  -0.000032  -0.000002  -0.000002   0.000002   0.000000
    13  C   -0.014351   0.005491   0.000095   0.000096  -0.000259  -0.000032
    14  H    0.001880   0.000093   0.000083  -0.000046   0.000008  -0.000002
    15  H    0.001870   0.000092  -0.000046   0.000083   0.000008  -0.000002
    16  C   -0.041142  -0.029812  -0.009943  -0.009932   0.004043   0.001713
    17  H    0.012226  -0.014496   0.001904   0.001900   0.000968   0.000053
    18  C    0.395972   0.364263  -0.015256  -0.015273  -0.021527  -0.000376
    19  H    0.745448  -0.073859   0.004397   0.004395  -0.000268   0.001065
    20  C   -0.073859   4.657198   0.368658   0.368671   0.363675  -0.073418
    21  H    0.004397   0.368658   0.667426  -0.034779  -0.015368   0.004406
    22  H    0.004395   0.368671  -0.034779   0.667429  -0.015374   0.004405
    23  C   -0.000268   0.363675  -0.015368  -0.015374   4.819754   0.395963
    24  H    0.001065  -0.073418   0.004406   0.004405   0.395963   0.745021
    25  C    0.001684  -0.029252  -0.009723  -0.009722   0.592115  -0.041948
    26  H    0.000052  -0.014397   0.001869   0.001868  -0.037953   0.012175
    27  C   -0.000032   0.005476   0.000088   0.000088  -0.028403  -0.014320
    28  H   -0.000002   0.000108  -0.000046   0.000083  -0.009710   0.001885
    29  H   -0.000002   0.000108   0.000083  -0.000046  -0.009711   0.001885
    30  C    0.000002  -0.000252   0.000008   0.000008   0.004025   0.000872
    31  H    0.000000  -0.000035  -0.000002  -0.000002   0.001788   0.000055
    32  C    0.000000   0.000004   0.000000   0.000000  -0.000602  -0.000008
    33  H    0.000000   0.000000   0.000000   0.000000  -0.000012   0.000011
    34  H    0.000000   0.000000   0.000000   0.000000   0.000017   0.000000
              25         26         27         28         29         30
     1  C    0.000000   0.000000   0.000000   0.000000   0.000000   0.000000
     2  H    0.000000   0.000000   0.000000   0.000000   0.000000   0.000000
     3  H    0.000000   0.000000   0.000000   0.000000   0.000000   0.000000
     4  C    0.000000   0.000000   0.000000   0.000000   0.000000   0.000000
     5  H    0.000000   0.000000   0.000000   0.000000   0.000000   0.000000
     6  C    0.000000   0.000000   0.000000   0.000000   0.000000   0.000000
     7  H    0.000000   0.000000   0.000000   0.000000   0.000000   0.000000
     8  H    0.000000   0.000000   0.000000   0.000000   0.000000   0.000000
     9  C    0.000000   0.000000   0.000000   0.000000   0.000000   0.000000
    10  H    0.000000   0.000000   0.000000   0.000000   0.000000   0.000000
    11  C    0.000000   0.000000   0.000000   0.000000   0.000000   0.000000
    12  H    0.000000   0.000000   0.000000   0.000000   0.000000   0.000000
    13  C    0.000004   0.000000   0.000000   0.000000   0.000000   0.000000
    14  H    0.000000   0.000000   0.000000   0.000000   0.000000   0.000000
    15  H    0.000000   0.000000   0.000000   0.000000   0.000000   0.000000
    16  C   -0.000571  -0.000010   0.000004   0.000000   0.000000   0.000000
    17  H   -0.000009   0.000009   0.000000   0.000000   0.000000   0.000000
    18  C    0.003770   0.000942  -0.000250   0.000008   0.000008   0.000005
    19  H    0.001684   0.000052  -0.000032  -0.000002  -0.000002   0.000002
    20  C   -0.029252  -0.014397   0.005476   0.000108   0.000108  -0.000252
    21  H   -0.009723   0.001869   0.000088  -0.000046   0.000083   0.000008
    22  H   -0.009722   0.001868   0.000088   0.000083  -0.000046   0.000008
    23  C    0.592115  -0.037953  -0.028403  -0.009710  -0.009711   0.004025
    24  H   -0.041948   0.012175  -0.014320   0.001885   0.001885   0.000872
    25  C    4.840789   0.395020   0.360101  -0.016191  -0.016190  -0.021486
    26  H    0.395020   0.742729  -0.073637   0.004341   0.004341  -0.001347
    27  C    0.360101  -0.073637   4.664041   0.371643   0.371643   0.374503
    28  H   -0.016191   0.004341   0.371643   0.662148  -0.033361  -0.017985
    29  H   -0.016190   0.004341   0.371643  -0.033361   0.662147  -0.017985
    30  C   -0.021486  -0.001347   0.374503  -0.017985  -0.017985   4.678250
    31  H   -0.000422   0.001149  -0.071762   0.004458   0.004458   0.399845
    32  C    0.003336   0.001333  -0.040126  -0.008444  -0.008443   0.703262
    33  H    0.001198   0.000059  -0.019765   0.002204   0.002204  -0.002407
    34  H   -0.000324  -0.000046   0.008128  -0.000087  -0.000087   0.009437
              31         32         33         34
     1  C    0.000000   0.000000   0.000000   0.000000
     2  H    0.000000   0.000000   0.000000   0.000000
     3  H    0.000000   0.000000   0.000000   0.000000
     4  C    0.000000   0.000000   0.000000   0.000000
     5  H    0.000000   0.000000   0.000000   0.000000
     6  C    0.000000   0.000000   0.000000   0.000000
     7  H    0.000000   0.000000   0.000000   0.000000
     8  H    0.000000   0.000000   0.000000   0.000000
     9  C    0.000000   0.000000   0.000000   0.000000
    10  H    0.000000   0.000000   0.000000   0.000000
    11  C    0.000000   0.000000   0.000000   0.000000
    12  H    0.000000   0.000000   0.000000   0.000000
    13  C    0.000000   0.000000   0.000000   0.000000
    14  H    0.000000   0.000000   0.000000   0.000000
    15  H    0.000000   0.000000   0.000000   0.000000
    16  C    0.000000   0.000000   0.000000   0.000000
    17  H    0.000000   0.000000   0.000000   0.000000
    18  C    0.000002   0.000000   0.000000   0.000000
    19  H    0.000000   0.000000   0.000000   0.000000
    20  C   -0.000035   0.000004   0.000000   0.000000
    21  H   -0.000002   0.000000   0.000000   0.000000
    22  H   -0.000002   0.000000   0.000000   0.000000
    23  C    0.001788  -0.000602  -0.000012   0.000017
    24  H    0.000055  -0.000008   0.000011   0.000000
    25  C   -0.000422   0.003336   0.001198  -0.000324
    26  H    0.001149   0.001333   0.000059  -0.000046
    27  C   -0.071762  -0.040126  -0.019765   0.008128
    28  H    0.004458  -0.008444   0.002204  -0.000087
    29  H    0.004458  -0.008443   0.002204  -0.000087
    30  C    0.399845   0.703262  -0.002407   0.009437
    31  H    0.733935  -0.042607   0.011946  -0.017857
    32  C   -0.042607   4.617313   0.366262   0.357357
    33  H    0.011946   0.366262   0.703993  -0.059767
    34  H   -0.017857   0.357357  -0.059767   0.700175
 Mulliken charges:
               1
     1  C    0.051720
     2  H   -0.005671
     3  H    0.002935
     4  C   -0.108220
     5  H   -0.024844
     6  C    0.092842
     7  H    0.038922
     8  H    0.038908
     9  C   -0.051351
    10  H   -0.038377
    11  C   -0.044011
    12  H   -0.039578
    13  C    0.101969
    14  H    0.036152
    15  H    0.036127
    16  C   -0.046224
    17  H   -0.040106
    18  C   -0.047130
    19  H   -0.040306
    20  C    0.101967
    21  H    0.036140
    22  H    0.036142
    23  C   -0.043186
    24  H   -0.039405
    25  C   -0.052177
    26  H   -0.038499
    27  C    0.092579
    28  H    0.038948
    29  H    0.038948
    30  C   -0.108756
    31  H   -0.024952
    32  C    0.051365
    33  H   -0.005926
    34  H    0.003054
 Sum of Mulliken charges =   0.00000
 Mulliken charges with hydrogens summed into heavy atoms:
               1
     1  C    0.048984
     4  C   -0.133064
     6  C    0.170672
     9  C   -0.089727
    11  C   -0.083590
    13  C    0.174248
    16  C   -0.086330
    18  C   -0.087436
    20  C    0.174249
    23  C   -0.082591
    25  C   -0.090676
    27  C    0.170476
    30  C   -0.133708
    32  C    0.048492
 Electronic spatial extent (au):  <R**2>=          10073.1345
 Charge=              0.0000 electrons
 Dipole moment (field-independent basis, Debye):
    X=             -0.0133    Y=              0.0011    Z=              0.0003  Tot=              0.0133
 Quadrupole moment (field-independent basis, Debye-Ang):
   XX=            -92.3467   YY=            -80.7416   ZZ=            -92.2519
   XY=             -0.7381   XZ=             -0.0004   YZ=              0.0023
 Traceless Quadrupole moment (field-independent basis, Debye-Ang):
   XX=             -3.9000   YY=              7.7051   ZZ=             -3.8051
   XY=             -0.7381   XZ=             -0.0004   YZ=              0.0023
 Octapole moment (field-independent basis, Debye-Ang**2):
  XXX=             -0.6681  YYY=              0.0015  ZZZ=              0.0093  XYY=             -0.0321
  XXY=              0.2291  XXZ=             -0.0183  XZZ=             -0.0300  YZZ=              0.0037
  YYZ=             -0.0037  XYZ=             -0.0559
 Hexadecapole moment (field-independent basis, Debye-Ang**3):
 XXXX=         -14002.1420 YYYY=           -281.9843 ZZZZ=           -125.2141 XXXY=             -3.6703
 XXXZ=              0.0941 YYYX=              2.9020 YYYZ=              0.0057 ZZZX=             -0.0340
 ZZZY=             -0.0019 XXYY=          -2168.4937 XXZZ=          -2500.3481 YYZZ=            -67.7664
 XXYZ=              0.1517 YYXZ=              0.0117 ZZXY=            -10.1561
 N-N= 7.069374552238D+02 E-N=-2.676042789554D+03  KE= 5.414502128739D+02
 Calling FoFJK, ICntrl=      2127 FMM=F ISym2X=0 I1Cent= 0 IOpClX= 0 NMat=1 NMatS=1 NMatT=0.
 ***** Axes restored to original set *****
 -------------------------------------------------------------------
 Center     Atomic                   Forces (Hartrees/Bohr)
 Number     Number              X              Y              Z
 -------------------------------------------------------------------
      1        6          -0.030492002    0.000000272   -0.028625885
      2        1           0.003041714    0.000000351    0.016909353
      3        1           0.016341788   -0.000000398   -0.004816954
      4        6           0.015135611    0.000000194    0.051491130
      5        1          -0.002078667   -0.000000875   -0.017388072
      6        6           0.005361638    0.000024615   -0.062188150
      7        1          -0.000831215   -0.016962220    0.014495893
      8        1          -0.000823189    0.016957018    0.014506464
      9        6          -0.020593262   -0.000008180    0.052912524
     10        1           0.005387540   -0.000014870   -0.017026626
     11        6           0.020944486    0.000000791   -0.053148788
     12        1          -0.005226423   -0.000003457    0.017005455
     13        6          -0.006522239   -0.000070753    0.061462190
     14        1           0.001434488    0.016972196   -0.014510298
     15        1           0.001499012   -0.016921025   -0.014549529
     16        6          -0.009975526    0.000100375   -0.056058659
     17        1           0.002022724   -0.000036583    0.017757310
     18        6           0.010255480   -0.000102585    0.056151811
     19        1          -0.001826714    0.000035403   -0.017679827
     20        6           0.005422133    0.000125219   -0.061567859
     21        1          -0.001425432    0.016916586    0.014568845
     22        1          -0.001390167   -0.016976332    0.014502787
     23        6          -0.020654419   -0.000121551    0.053101674
     24        1           0.005437120    0.000037625   -0.017044703
     25        6           0.020876793    0.000121579   -0.052933819
     26        1          -0.005179755   -0.000037320    0.016983688
     27        6          -0.006520673   -0.000124087    0.062044543
     28        1           0.000907679   -0.016933165   -0.014531212
     29        1           0.000874152    0.016989968   -0.014466757
     30        6          -0.015268042    0.000082793   -0.050682072
     31        1           0.002327388   -0.000030718    0.017511166
     32        6           0.030902528   -0.000028586    0.027932534
     33        1          -0.003092719    0.000031246   -0.016965401
     34        1          -0.016271832   -0.000023529    0.004847243
 -------------------------------------------------------------------
 Cartesian Forces:  Max     0.062188150 RMS     0.022526494
 -----------------------------------------------------------------------------------------------
                       Internal Coordinate Forces (Hartree/Bohr or radian)
  Cent   Atom   N1       Length/X         N2         Alpha/Y        N3         Beta/Z          J
 -----------------------------------------------------------------------------------------------
      1  C 
      2  H        1   0.016909(     1)
      3  H        1   0.016569(     2)      2  -0.006139(    34)
      4  C        1  -0.017922(     3)      3   0.001882(    35)      2  -0.000001(    66)     0
      5  H        4   0.017388(     4)      1   0.004203(    36)      3   0.000002(    67)     0
      6  C        4  -0.007065(     5)      1   0.024584(    37)      3  -0.000003(    68)     0
      7  H        6   0.022227(     6)      4   0.001147(    38)      1   0.003905(    69)     0
      8  H        6   0.022229(     7)      4   0.001142(    39)      1  -0.003917(    70)     0
      9  C        6  -0.005880(     8)      4   0.021322(    40)      1   0.000009(    71)     0
     10  H        9   0.017733(     9)      6  -0.004277(    41)      4   0.000031(    72)     0
     11  C        9  -0.015666(    10)      6   0.019606(    42)      4  -0.000030(    73)     0
     12  H       11   0.017693(    11)      9   0.003753(    43)      6  -0.000011(    74)     0
     13  C       11  -0.005754(    12)      9   0.025175(    44)      6  -0.000053(    75)     0
     14  H       13   0.022273(    13)     11   0.002157(    45)      9   0.003532(    76)     0
     15  H       13   0.022264(    14)     11   0.002128(    46)      9  -0.003555(    77)     0
     16  C       13  -0.005907(    15)     11   0.021443(    47)      9  -0.000004(    78)     0
     17  H       16   0.017745(    16)     13  -0.004303(    48)     11  -0.000007(    79)     0
     18  C       16  -0.015604(    17)     13   0.019802(    49)     11  -0.000006(    80)     0
     19  H       18   0.017680(    18)     16   0.003695(    50)     13  -0.000006(    81)     0
     20  C       18  -0.005671(    19)     16   0.025143(    51)     13   0.000001(    82)     0
     21  H       20   0.022268(    20)     18   0.002231(    52)     16  -0.003496(    83)     0
     22  H       20   0.022268(    21)     18   0.002231(    53)     16   0.003496(    84)     0
     23  C       20  -0.005994(    22)     18   0.021513(    54)     16   0.000000(    85)     0
     24  H       23   0.017760(    23)     20  -0.004368(    55)     18   0.000000(    86)     0
     25  C       23  -0.015667(    24)     20   0.019733(    56)     18   0.000001(    87)     0
     26  H       25   0.017663(    25)     23   0.003667(    57)     20   0.000000(    88)     0
     27  C       25  -0.005654(    26)     23   0.024935(    58)     20   0.000000(    89)     0
     28  H       27   0.022230(    27)     25   0.003060(    59)     23  -0.002867(    90)     0
     29  H       27   0.022230(    28)     25   0.003060(    60)     23   0.002867(    91)     0
     30  C       27  -0.007338(    29)     25   0.022560(    61)     23  -0.000001(    92)     0
     31  H       30   0.017497(    30)     27  -0.004918(    62)     25   0.000001(    93)     0
     32  C       30  -0.017931(    31)     27   0.018478(    63)     25  -0.000001(    94)     0
     33  H       32   0.016965(    32)     30   0.006256(    64)     27  -0.000005(    95)     0
     34  H       32   0.016524(    33)     30   0.007894(    65)     27   0.000005(    96)     0
 -----------------------------------------------------------------------------------------------
 Internal  Forces:  Max     0.025174831 RMS     0.012731158

 GradGradGradGradGradGradGradGradGradGradGradGradGradGradGradGradGradGrad
 Berny optimization.
 Search for a local minimum.
 Step number   1 out of a maximum of  102
 All quantities printed in internal units (Hartrees-Bohrs-Radians)
 Second derivative matrix not updated -- first step.
 ITU=  0
     Eigenvalues ---    0.00448   0.00448   0.00448   0.00449   0.00685
     Eigenvalues ---    0.00685   0.00685   0.00686   0.02901   0.03411
     Eigenvalues ---    0.03412   0.03413   0.03423   0.11246   0.12105
     Eigenvalues ---    0.13530   0.13531   0.13548   0.13560   0.14224
     Eigenvalues ---    0.14224   0.14224   0.14238   0.16000   0.16000
     Eigenvalues ---    0.16996   0.17012   0.17012   0.17012   0.19879
     Eigenvalues ---    0.19879   0.19879   0.19879   0.19879   0.19879
     Eigenvalues ---    0.19880   0.19882   0.20088   0.20139   0.20140
     Eigenvalues ---    0.20141   0.28519   0.28519   0.28519   0.28519
     Eigenvalues ---    0.28519   0.28519   0.28519   0.28519   0.35689
     Eigenvalues ---    0.35689   0.35689   0.35706   0.37230   0.37230
     Eigenvalues ---    0.37230   0.37230   0.37230   0.37230   0.37230
     Eigenvalues ---    0.37230   0.37230   0.37230   0.37230   0.37230
     Eigenvalues ---    0.37230   0.37230   0.37230   0.37230   0.37230
     Eigenvalues ---    0.37230   0.37230   0.37230   0.39316   0.39316
     Eigenvalues ---    0.39316   0.39335   0.42130   0.42130   0.42131
     Eigenvalues ---    0.42153   0.48000   0.48004   0.53121   0.53121
     Eigenvalues ---    0.53121   0.53121   0.53121   0.53121   0.53121
     Eigenvalues ---    0.53125   2.69649
 RFO step:  Lambda=-3.95511486D-02 EMin= 4.47816642D-03
 Linear search not attempted -- first point.
 Maximum step size (   0.300) exceeded in Quadratic search.
    -- Step size scaled by   0.916
 Variable       Old X    -DE/DX   Delta X   Delta X   Delta X     New X
                                 (Linear)    (Quad)   (Total)
    B1        2.02201   0.01691   0.00000   0.03763   0.03763   2.05963
    B2        2.02201   0.01657   0.00000   0.03687   0.03687   2.05888
    B3        2.56096  -0.08279   0.00000  -0.02773  -0.02773   2.53323
    B4        2.02201   0.01739   0.00000   0.03869   0.03869   2.06070
    B5        2.91018  -0.00707   0.00000  -0.01994  -0.01994   2.89024
    B6        2.02201   0.02223   0.00000   0.04946   0.04946   2.07147
    B7        2.02201   0.02223   0.00000   0.04946   0.04946   2.07147
    B8        2.91018  -0.00588   0.00000  -0.01659  -0.01659   2.89358
    B9        2.02201   0.01773   0.00000   0.03946   0.03946   2.06147
   B11        2.02201   0.01769   0.00000   0.03937   0.03937   2.06138
   B12        2.91018  -0.00575   0.00000  -0.01624  -0.01624   2.89394
   B13        2.02201   0.02227   0.00000   0.04956   0.04956   2.07157
   B14        2.02201   0.02226   0.00000   0.04954   0.04954   2.07155
   B15        2.91018  -0.00591   0.00000  -0.01667  -0.01667   2.89351
   B16        2.02201   0.01775   0.00000   0.03949   0.03949   2.06149
   B18        2.02201   0.01768   0.00000   0.03934   0.03934   2.06135
   B19        2.91018  -0.00567   0.00000  -0.01601  -0.01601   2.89417
   B20        2.02201   0.02227   0.00000   0.04955   0.04955   2.07156
   B21        2.02201   0.02227   0.00000   0.04955   0.04955   2.07156
   B22        2.91018  -0.00599   0.00000  -0.01691  -0.01691   2.89326
   B23        2.02201   0.01776   0.00000   0.03952   0.03952   2.06153
   B25        2.02201   0.01766   0.00000   0.03930   0.03930   2.06131
   B26        2.91018  -0.00565   0.00000  -0.01596  -0.01596   2.89422
   B27        2.02201   0.02223   0.00000   0.04947   0.04947   2.07147
   B28        2.02201   0.02223   0.00000   0.04947   0.04947   2.07147
   B29        2.91018  -0.00734   0.00000  -0.02071  -0.02071   2.88947
   B30        2.02201   0.01750   0.00000   0.03893   0.03893   2.06094
   B32        2.02201   0.01697   0.00000   0.03775   0.03775   2.05976
   B33        2.02201   0.01652   0.00000   0.03677   0.03677   2.05877
    A1        2.09241  -0.00614   0.00000  -0.02217  -0.02217   2.07025
    A2        2.09241   0.00188   0.00000   0.01467   0.01467   2.10708
    A3        2.09836   0.00420   0.00000  -0.01377  -0.01377   2.08459
    A4        2.09241   0.02458   0.00000   0.05501   0.05501   2.14743
    A5        1.91063   0.00115   0.00000  -0.00955  -0.00955   1.90108
    A6        1.91063   0.00114   0.00000  -0.00955  -0.00955   1.90108
    A7        1.91063   0.02132   0.00000   0.06241   0.06241   1.97305
    A8        2.09241  -0.00428   0.00000  -0.03408  -0.03408   2.05833
    A9        2.09836   0.01961   0.00000   0.05209   0.05209   2.15045
   A10        2.09836   0.00375   0.00000  -0.01577  -0.01577   2.08258
   A11        2.09241   0.02517   0.00000   0.05694   0.05694   2.14935
   A12        1.91063   0.00216   0.00000  -0.00623  -0.00623   1.90440
   A13        1.91063   0.00213   0.00000  -0.00634  -0.00634   1.90429
   A14        1.91063   0.02144   0.00000   0.06136   0.06136   1.97200
   A15        2.09241  -0.00430   0.00000  -0.03438  -0.03438   2.05804
   A16        2.09836   0.01980   0.00000   0.05260   0.05260   2.15096
   A17        2.09832   0.00369   0.00000  -0.01591  -0.01591   2.08241
   A18        2.09245   0.02514   0.00000   0.05692   0.05692   2.14937
   A19        1.91063   0.00223   0.00000  -0.00600  -0.00600   1.90464
   A20        1.91063   0.00223   0.00000  -0.00600  -0.00600   1.90464
   A21        1.91063   0.02151   0.00000   0.06143   0.06143   1.97206
   A22        2.09241  -0.00437   0.00000  -0.03450  -0.03450   2.05792
   A23        2.09836   0.01973   0.00000   0.05250   0.05250   2.15086
   A24        2.09836   0.00367   0.00000  -0.01577  -0.01577   2.08258
   A25        2.09241   0.02494   0.00000   0.05645   0.05645   2.14886
   A26        1.91063   0.00306   0.00000  -0.00350  -0.00350   1.90713
   A27        1.91063   0.00306   0.00000  -0.00350  -0.00350   1.90713
   A28        1.91063   0.02256   0.00000   0.06281   0.06281   1.97344
   A29        2.09241  -0.00492   0.00000  -0.03481  -0.03481   2.05760
   A30        2.09836   0.01848   0.00000   0.05006   0.05006   2.14842
   A31        2.09832   0.00626   0.00000   0.00872   0.00872   2.10704
   A32        2.09245   0.00789   0.00000   0.01624   0.01624   2.10869
    D1        3.14159   0.00000   0.00000   0.00000   0.00000   3.14159
    D2        0.00000   0.00000   0.00000   0.00000   0.00000   0.00000
    D3        3.14159   0.00000   0.00000  -0.00002  -0.00002   3.14158
    D4       -1.04739   0.00391   0.00000   0.02231   0.02231  -1.02508
    D5        1.04700  -0.00392   0.00000  -0.02237  -0.02237   1.02464
    D6        3.14140   0.00001   0.00000   0.00001   0.00001   3.14141
    D7       -0.00004   0.00003   0.00000   0.00007   0.00007   0.00003
    D8        3.14155  -0.00003   0.00000  -0.00004  -0.00004   3.14151
    D9        0.00042  -0.00001   0.00000  -0.00018  -0.00018   0.00024
   D10       -3.14117  -0.00005   0.00000  -0.00039  -0.00039  -3.14156
   D11       -1.04918   0.00353   0.00000   0.02048   0.02048  -1.02870
   D12        1.04522  -0.00356   0.00000  -0.02083  -0.02083   1.02439
   D13        3.13961   0.00000   0.00000  -0.00018  -0.00018   3.13943
   D14       -0.00075  -0.00001   0.00000  -0.00014  -0.00014  -0.00088
   D15        3.14084  -0.00001   0.00000  -0.00012  -0.00012   3.14072
   D16        0.00004  -0.00001   0.00000  -0.00005  -0.00005  -0.00001
   D17        3.14155   0.00000   0.00000  -0.00001  -0.00001   3.14154
   D18        1.04723  -0.00350   0.00000  -0.02049  -0.02049   1.02675
   D19       -1.04716   0.00350   0.00000   0.02048   0.02048  -1.02668
   D20       -3.14156   0.00000   0.00000  -0.00001  -0.00001  -3.14156
   D21        0.00006   0.00000   0.00000   0.00001   0.00001   0.00007
   D22       -3.14153   0.00000   0.00000   0.00001   0.00001  -3.14152
   D23        0.00000   0.00000   0.00000   0.00000   0.00000   0.00000
   D24        3.14159   0.00000   0.00000   0.00000   0.00000   3.14160
   D25        1.04720  -0.00287   0.00000  -0.01871  -0.01871   1.02849
   D26       -1.04720   0.00287   0.00000   0.01871   0.01871  -1.02849
   D27        3.14159   0.00000   0.00000   0.00000   0.00000   3.14159
   D28       -0.00001   0.00000   0.00000   0.00000   0.00000  -0.00001
   D29        3.14158   0.00000   0.00000  -0.00001  -0.00001   3.14157
   D30        0.00006   0.00000   0.00000  -0.00003  -0.00003   0.00004
   D31        3.14153   0.00000   0.00000   0.00003   0.00003   3.14156
         Item               Value     Threshold  Converged?
 Maximum Force            0.082789     0.000450     NO 
 RMS     Force            0.015122     0.000300     NO 
 Maximum Displacement     0.062808     0.001800     NO 
 RMS     Displacement     0.031277     0.001200     NO 
 Predicted change in Energy=-2.141732D-02
 GradGradGradGradGradGradGradGradGradGradGradGradGradGradGradGradGradGrad

 ---------------------------------------------------------------------------------------------------
                            Z-MATRIX (ANGSTROMS AND DEGREES)
   CD    Cent   Atom    N1       Length/X        N2       Alpha/Y        N3        Beta/Z          J
 ---------------------------------------------------------------------------------------------------
      1      1  C 
      2      2  H        1   1.089911(     1)
      3      3  H        1   1.089510(     2)      2  118.616(    34)
[...]
 299,0.00000034,-0.00001069,0.00000987,-0.00000624,-0.00000345,0.000011
 67,0.00000155,0.00000592,0.00000674,-0.00001892,0.00004002,0.00000650,
 0.00001204,-0.00004453,0.00010282,-0.00014057,-0.00009509,0.00021506,0
 .00009917,-0.00002114,-0.00001163,-0.00005461,-0.00004292,-0.00067539,
 0.00095946,0.00154173,0.00080857,0.00006869,-0.00052337,-0.02443332,-0
 .00352265,0.00910413,-0.00213362,-0.00296730,-0.00296431,-0.02315341,-
 0.04886814,0.00817421,-0.00482457,-0.00104098,0.00155733,0.02442766,0.
 05665765,0.00000224,0.00000037,-0.00000054,-0.00000034,-0.00000020,0.0
 0000077,0.00000091,0.00000013,-0.00000020,-0.00000338,-0.00000144,0.00
 000156,-0.00000059,-0.00000023,0.00000043,0.00000078,-0.00000064,-0.00
 000192,0.00000091,0.00000124,-0.00000098,0.00000155,-0.00000107,0.0000
 0177,-0.00000112,0.00000360,-0.00000058,0.00000149,0.00000128,0.000000
 84,-0.00000488,-0.00000454,0.00000226,-0.00000131,0.00000329,-0.000002
 03,0.00000410,-0.00000346,-0.00000171,0.00000034,-0.00000295,-0.000001
 61,0.00000254,0.00000201,0.00000415,-0.00000180,-0.00000118,-0.0000053
 9,0.00000566,0.00000022,0.00000327,-0.00000622,0.00001762,-0.00002254,
 0.00000476,-0.00000391,-0.00001721,-0.00019035,-0.00002033,-0.00003794
 ,0.00013321,-0.00001116,-0.00008881,0.00005886,0.00007292,0.00000684,-
 0.00138501,0.00024797,0.00058365,0.00034493,0.00014745,0.00008686,-0.0
 1391868,-0.00165131,0.00427260,-0.00117216,-0.00268704,-0.00002464,0.0
 8444729,0.00824318,-0.07718393,0.02780007,0.00251877,-0.00943074,-0.08
 955171,-0.00743749,0.07918355,-0.00003260,0.00001126,0.00001807,0.0000
 0337,-0.00000188,0.00000211,-0.00001641,-0.00001211,-0.00000322,0.0000
 4152,0.00005469,-0.00006627,0.00000275,-0.00001456,0.00000963,-0.00003
 806,-0.00004124,0.00002216,0.00000110,0.00000688,0.00000681,-0.0000232
 5,0.00002657,-0.00001224,0.00000035,0.00002978,0.00001373,0.00000485,0
 .00000273,-0.00000715,0.00006529,-0.00013550,-0.00013052,0.00000823,0.
 00001342,0.00002192,-0.00016126,0.00015112,0.00005572,0.00000384,0.000
 02479,-0.00000249,-0.00001685,-0.00000280,-0.00008991,0.00017249,0.000
 01318,-0.00023195,-0.00001686,-0.00006557,0.00000083,-0.00056268,-0.00
 072730,0.00027932,0.00004185,0.00005106,-0.00002943,0.00064293,0.00080
 181,-0.00167218,-0.00009991,-0.00004252,0.00004127,-0.00010241,-0.0001
 9379,-0.00004746,-0.00213334,-0.00265357,-0.00147565,0.00038553,-0.000
 11047,0.00016705,0.01368226,-0.00772647,0.00596213,-0.00012942,-0.0011
 3303,-0.00020157,-0.12499809,0.05346707,-0.00398309,-0.00018974,0.0011
 7778,0.00016389,-0.01672168,0.02715590,-0.00499519,0.59989080,0.000001
 71,-0.00000988,-0.00000486,-0.00000069,0.00000284,-0.00000143,-0.00000
 071,0.00000623,0.00000099,0.00000368,-0.00002143,0.00001059,0.00000443
 ,0.00000969,-0.00000358,0.00002005,0.00003378,0.00000522,-0.00000887,-
 0.00001447,0.00000162,0.00000202,-0.00000929,-0.00000018,-0.00000037,-
 0.00003751,-0.00000081,-0.00001044,-0.00001173,-0.00000622,-0.00000184
 ,0.00010668,0.00003389,-0.00000191,-0.00002382,0.00000156,0.00000228,0
 .00003756,-0.00001691,-0.00000166,-0.00000301,0.00000869,0.00000283,-0
 .00001501,0.00003437,0.00002566,-0.00003498,-0.00002214,-0.00000790,-0
 .00000034,-0.00000052,-0.00014694,-0.00027610,-0.00024762,-0.00000528,
 0.00001039,0.00002391,-0.00060863,0.00089099,-0.00155292,0.00000719,-0
 .00001841,0.00004926,0.00012350,0.00041654,0.00032247,-0.00061688,0.00
 055931,0.00191784,0.00016636,-0.00027855,0.00009734,0.00761807,-0.0356
 5308,-0.00209020,0.00079044,0.00229447,0.00023506,0.06310845,-0.166757
 80,0.02185600,0.00531253,-0.01027429,0.00453035,-0.00101735,0.00150876
 ,-0.00000412,0.07336648,0.68516389,-0.00000949,0.00000372,-0.00000066,
 0.00000070,-0.00000053,-0.00000465,-0.00000434,-0.00000424,0.00000105,
 0.00001279,0.00001846,-0.00000118,0.00000479,-0.00000297,-0.00000225,-
 0.00001817,-0.00001435,0.00000821,-0.00000168,0.00000045,0.00000691,-0
 .00000815,0.00000815,-0.00001051,0.00001090,0.00001646,0.00000227,0.00
 000028,0.00000006,0.00000018,0.00002167,-0.00005192,-0.00006625,-0.000
 00439,0.00000238,0.00001123,-0.00005831,0.00008530,0.00002875,0.000007
 64,0.00000801,-0.00000574,-0.00000733,-0.00000275,-0.00002829,0.000047
 10,0.00000038,-0.00010532,0.00000665,-0.00002524,-0.00000269,-0.000246
 73,-0.00041703,0.00004291,0.00002714,0.00001825,-0.00002832,-0.0001853
 7,0.00076284,-0.00126025,-0.00004933,-0.00000565,0.00000498,0.00008654
 ,0.00009400,0.00006866,-0.00158729,-0.00230939,-0.00032253,0.00015285,
 -0.00043522,0.00057559,0.00945571,-0.01170968,0.00202266,-0.00023948,0
 .00039069,0.00004108,-0.00529648,0.02027922,-0.07223279,-0.01686734,0.
 03017195,-0.00443891,0.00614032,-0.01000850,0.00105162,-0.17100000,-0.
 21448398,0.28038910,0.00000529,-0.00000188,-0.00000415,-0.00000075,0.0
 0000040,-0.00000188,0.00000271,0.00000172,0.00000078,-0.00000671,-0.00
 000754,0.00001506,0.00000147,0.00000283,-0.00000353,0.00000418,0.00000
 629,-0.00000176,-0.00000135,-0.00000165,0.00000142,0.00000219,-0.00000
 433,-0.00000079,0.00000392,-0.00000271,-0.00000402,-0.00000165,-0.0000
 0100,0.00000212,-0.00000607,0.00001874,0.00000755,-0.00000555,-0.00000
 284,0.00000136,0.00001171,-0.00001173,-0.00000107,0.00000401,-0.000004
 45,-0.00000227,0.00000230,-0.00000029,0.00001017,-0.00001585,-0.000006
 85,0.00002002,0.00000829,0.00001053,-0.00000068,0.00002921,0.00005600,
 -0.00003043,0.00000226,-0.00000624,-0.00000491,-0.00000903,-0.00006461
 ,0.00010012,0.00002638,0.00002854,0.00001415,-0.00000190,0.00001612,0.
 00001408,0.00040818,0.00033518,0.00023666,0.00001952,-0.00004248,-0.00
 022603,-0.00001106,-0.00090783,-0.00053357,0.00046710,0.00066471,0.000
 18183,-0.01295669,-0.00206651,0.00576732,0.00044672,0.00005922,-0.0003
 8873,-0.00040309,0.00277885,-0.00059652,-0.29589772,0.00252261,0.08219
 801,0.31573858,0.00000195,-0.00000182,0.00000073,-0.00000003,0.0000004
 9,0.00000072,0.00000112,0.00000115,-0.00000025,-0.00000304,-0.00000307
 ,-0.00000048,-0.00000112,0.00000190,-0.00000014,0.00000089,0.00000124,
 -0.00000052,-0.00000036,0.00000094,-0.00000081,0.00000116,-0.00000134,
 0.00000150,-0.00000418,0.00000518,-0.00000120,0.00000157,0.00000010,0.
 00000018,-0.00000190,-0.00000588,0.00000158,-0.00000015,0.00000344,-0.
 00000224,-0.00000139,-0.00000059,-0.00000230,-0.00000057,-0.00000236,0
 .00000151,0.00000171,0.00000141,0.00000134,0.00000051,0.00000650,-0.00
 000763,-0.00000517,-0.00000557,-0.00000154,0.00001890,0.00000995,0.000
 01131,-0.00000139,-0.00000344,0.00000410,-0.00004102,-0.00001144,0.000
 01080,-0.00002386,-0.00003100,-0.00001369,0.00000033,-0.00000159,-0.00
 000124,-0.00024439,-0.00029497,-0.00030634,-0.00012462,-0.00005960,0.0
 0017517,0.00085206,0.00233161,0.00036396,-0.00058323,-0.00055405,-0.00
 002015,0.02435677,0.00075476,-0.00819547,-0.00045597,0.00068681,0.0004
 2106,0.00268418,-0.00424147,0.00116086,0.00644081,-0.05297704,0.002509
 65,-0.00458747,0.05419433,0.00000115,0.00000147,0.00000507,0.00000051,
 -0.00000057,0.00000410,0.00000129,-0.00000028,-0.00000130,-0.00000444,
 0.00000028,-0.00001251,-0.00000572,-0.00000290,0.00000458,0.00000030,-
 0.00000516,-0.00000289,0.00000474,0.00000464,-0.00000588,0.00000318,0.
 00000046,0.00000670,-0.00000946,0.00000639,0.00000071,0.00000394,0.000
 00341,-0.00000061,-0.00000828,-0.00001476,0.00000913,0.00000701,0.0000
 0812,-0.00000857,0.00000575,-0.00000462,-0.00000692,-0.00000468,-0.000
 00170,0.00000209,0.00000295,0.00000424,0.00000491,-0.00000199,0.000012
 98,-0.00000896,-0.00000893,-0.00001182,0.00000168,0.00001850,0.0000145
 5,0.00000363,-0.00000431,-0.00000499,0.00000222,0.00003015,-0.00003403
 ,-0.00002190,-0.00000042,-0.00000537,0.00001217,-0.00001088,0.00000844
 ,0.00000452,-0.00010812,0.00002731,0.00002033,0.00002921,0.00000901,-0
 .00001116,0.00019548,0.00059037,0.00010246,-0.00003815,-0.00016893,0.0
 0006596,-0.00465117,0.00090896,0.00324875,0.00043456,-0.00085113,0.000
 46347,-0.00031849,0.00126471,0.00153755,0.08049582,0.00370270,-0.06761
 953,-0.09217777,-0.00891146,0.05857437,0.00000282,0.00000080,-0.000004
 56,-0.00000046,-0.00000063,-0.00000118,0.00000137,0.00000077,0.0000010
 8,-0.00000265,-0.00000710,0.00001292,0.00000037,0.00000071,-0.00000093
 ,0.00000734,0.00000666,-0.00000596,0.00000130,-0.00000358,-0.00000047,
 0.00000367,-0.00000339,0.00000101,0.00000450,-0.00002015,0.00000150,-0
 .00000407,-0.00000053,-0.00000049,-0.00001285,0.00004674,0.00003855,0.
 00000311,-0.00001097,-0.00000373,0.00005027,-0.00003990,-0.00001741,-0
 .00000630,0.00000046,0.00000342,0.00000018,-0.00000224,0.00002079,-0.0
 0004442,-0.00001267,0.00008616,0.00000145,0.00002244,0.00000095,0.0001
 6552,0.00019534,-0.00010842,-0.00001946,-0.00000401,0.00001993,-0.0001
 7463,-0.00015058,0.00048742,0.00001528,0.00001211,-0.00000113,0.000030
 60,0.00005405,0.00001559,0.00092328,0.00057179,0.00040561,-0.00014360,
 0.00005608,-0.00013524,-0.00251518,0.00132283,-0.00129199,0.00041954,0
 .00032068,0.00000010,0.01061688,0.01482497,-0.00590574,-0.00096994,0.0
 0294489,-0.00174803,0.00126938,0.00087071,-0.00099889,-0.17230395,-0.1
 3998691,0.09053885,-0.01005356,-0.02631348,0.01482105,0.61771209,-0.00
 000936,0.00000412,0.00000510,0.00000130,-0.00000064,-0.00000130,-0.000
 00396,-0.00000467,-0.00000034,0.00001071,0.00002165,-0.00001578,0.0000
 0070,-0.00000479,0.00000075,-0.00002021,-0.00002136,0.00000752,0.00000
 014,0.00000629,0.00000335,-0.00000803,0.00001028,-0.00000662,0.0000025
 1,0.00003050,0.00000219,0.00000566,0.00000320,0.00000129,0.00002099,-0
 .00008848,-0.00006600,-0.00000083,0.00001407,0.00000647,-0.00006124,0.
 00005591,0.00002922,0.00000544,0.00000773,-0.00000486,-0.00000701,0.00
 000351,-0.00004020,0.00005609,0.00001160,-0.00009021,-0.00000085,-0.00
 002702,-0.00000016,-0.00019323,-0.00025423,0.00016732,0.00002375,0.000
 01616,-0.00002429,0.00020554,0.00023686,-0.00046970,-0.00003320,-0.000
 01589,-0.00000062,-0.00002950,-0.00009959,-0.00004724,-0.00074006,-0.0
 0076907,-0.00029732,0.00011193,-0.00010971,0.00015417,0.00356209,0.000
 68603,0.00214637,-0.00038302,-0.00033597,-0.00017255,-0.00814659,-0.02
 820876,0.01400111,0.00077101,-0.00184098,-0.00030730,-0.00190900,0.001
 38219,-0.00023889,-0.14241713,-0.40969223,0.17452237,0.00312444,0.0023
 7112,0.00060041,0.01459300,0.73270176,-0.00000971,-0.00000503,-0.00000
 203,0.00000040,0.00000169,-0.00000382,-0.00000649,0.00000178,0.0000011
 3,0.00002044,-0.00000382,-0.00000167,0.00000816,0.00000516,-0.00000373
 ,0.00001161,0.00002436,0.00001116,-0.00001066,-0.00001477,0.00000754,-
 0.00000784,-0.00000069,-0.00000898,0.00000750,-0.00004242,0.00000335,-
 0.00001262,-0.00001202,-0.00000603,0.00002398,0.00008474,0.00001702,-0
 .00000183,-0.00002607,0.00001401,-0.00000776,0.00000004,-0.00000331,0.
 00000025,0.00000874,0.00000515,-0.00000682,-0.00001612,-0.00000231,0.0
 0001780,-0.00002888,0.00002497,0.00000183,0.00002040,-0.00000114,-0.00
 001245,-0.00000732,-0.00004909,-0.00001223,0.00001724,0.00001371,-0.00
 008640,0.00005250,-0.00001789,-0.00000290,-0.00000259,-0.00000920,0.00
 000750,0.00001531,0.00002199,0.00035832,0.00028580,0.00019209,-0.00003
 888,0.00004855,-0.00005149,-0.00112912,-0.00127011,-0.00013305,0.00010
 856,0.00012566,0.00004376,0.00177617,0.00792111,0.00350998,0.00026761,
 -0.00039853,0.00058749,0.00001143,-0.00089918,0.00001833,0.09083281,0.
 17334886,-0.14016964,0.00416506,0.00998161,0.00095354,-0.17405098,-0.2
 2730818,0.24091148,0.00000434,-0.00000071,-0.00000268,-0.00000051,0.00
 000021,-0.00000175,0.00000256,0.00000045,0.00000056,-0.00000673,-0.000
 00149,0.00001131,0.00000073,0.00000160,-0.00000308,-0.00000327,-0.0000
 0256,-0.00000106,-0.00000053,0.00000221,0.00000168,0.00000099,-0.00000
 167,-0.00000149,0.00000241,0.00001431,-0.00000416,0.00000223,0.0000013
 8,0.00000342,-0.00000261,-0.00002155,-0.00001618,-0.00000675,0.0000060
 6,0.00000176,-0.00000854,0.00000795,0.00000789,0.00000583,-0.00000449,
 -0.00000415,0.00000181,0.00000319,-0.00000172,-0.00000214,0.00000365,-
 0.00002018,0.00000590,-0.00000284,-0.00000159,-0.00003740,-0.00002988,
 0.00002770,0.00001228,-0.00000579,-0.00001141,0.00001554,0.00002761,-0
 .00008982,0.00000694,0.00000714,-0.00000207,-0.00000154,-0.00000208,-0
 .00000078,-0.00013050,-0.00006866,-0.00000603,0.00006125,-0.00004831,0
 .00001779,0.00036210,-0.00015174,0.00007274,-0.00000533,0.00009948,0.0
 0006063,0.00021488,0.00085559,-0.00294862,0.00013051,0.00042015,-0.000
 18983,0.00074380,-0.00089744,0.00012189,-0.01025854,0.00223411,0.00424
 952,0.00158715,-0.00113861,0.00371031,-0.30243869,-0.00432786,0.089695
 48,0.31988824,0.00000187,0.00000052,-0.00000015,-0.00000017,-0.0000001
 8,0.00000106,0.00000094,0.00000010,-0.00000017,-0.00000325,-0.00000163
 ,0.00000053,-0.00000137,-0.00000077,0.00000114,0.00000068,-0.00000069,
 -0.00000187,0.00000163,0.00000118,-0.00000223,0.00000227,-0.00000082,0
 .00000263,-0.00000181,0.00000338,-0.00000021,0.00000150,0.00000122,0.0
 0000045,-0.00000574,-0.00000327,0.00000240,-0.00000006,0.00000305,-0.0
 0000338,0.00000274,0.00000053,-0.00000164,0.00000015,-0.00000253,-0.00
 000135,0.00000230,0.00000172,0.00000477,-0.00000410,0.00000387,-0.0000
 0948,0.00000143,-0.00000301,0.00000057,-0.00000635,-0.00000258,-0.0000
 0158,0.00000350,-0.00000621,-0.00000644,0.00000518,0.00001667,-0.00005
 859,0.00001002,0.00001152,0.00000602,0.00000038,0.00001183,0.00000837,
 -0.00001131,-0.00001545,0.00000210,0.00005000,-0.00006895,-0.00001071,
 0.00006762,-0.00034441,0.00004710,0.00012879,0.00002374,0.00001682,-0.
 00278172,0.00087039,-0.00216932,0.00008634,0.00044269,-0.00020331,0.00
 084280,-0.00004721,-0.00020086,-0.02482507,0.00276765,0.00912527,-0.00
 092127,-0.00236312,0.00533254,-0.00031814,-0.05278209,0.00672417,0.006
 50172,0.04870729,0.00000252,0.00000131,0.00000083,-0.00000026,-0.00000
 040,0.00000123,0.00000149,-0.00000064,-0.00000058,-0.00000539,0.000001
 99,-0.00000088,-0.00000163,-0.00000122,0.00000093,-0.00000382,-0.00000
 703,-0.00000217,0.00000235,0.00000427,-0.00000114,0.00000125,0.0000002
 0,0.00000204,-0.00000256,0.00001393,-0.00000150,0.00000376,0.00000325,
 0.00000174,-0.00000374,-0.00002793,-0.00001205,-0.00000138,0.00000857,
 -0.00000148,-0.00000800,0.00000927,0.00000457,0.00000155,-0.00000338,-
 0.00000202,0.00000256,0.00000449,-0.00000199,0.00000259,0.00000999,-0.
 00002471,-0.00000048,-0.00001042,-0.00000081,-0.00003107,-0.00004171,0
 .00002465,0.00000729,-0.00000528,-0.00000703,-0.00000587,0.00006915,-0
 .00014761,-0.00000403,-0.00000517,0.00000035,0.00000082,0.00001097,0.0
 0000719,-0.00013706,-0.00015272,-0.00006725,0.00004402,-0.00007208,0.0
 0009938,0.00026858,-0.00054695,0.00056371,-0.00016303,-0.00019221,-0.0
 0006892,-0.00173498,-0.00356859,-0.00620771,-0.00007969,0.00120591,-0.
 00033178,-0.00034280,0.00040115,0.00014389,0.01365221,0.00026339,0.000
 94658,0.00356331,0.00535422,0.00865680,0.08827518,0.00781732,-0.066075
 35,-0.09979500,-0.01137151,0.05972129,0.00000148,-0.00000100,0.0000008
 7,-0.00000008,0.00000031,0.00000160,0.00000053,0.00000089,-0.00000043,
 -0.00000210,-0.00000345,-0.00000263,-0.00000136,0.00000005,0.00000133,
 0.00000335,0.00000300,-0.00000040,0.00000033,0.00000018,-0.00000256,0.
 00000180,-0.00000126,0.00000301,-0.00000357,0.00000007,-0.00000040,0.0
 0000081,-0.00000019,-0.00000020,-0.00000379,0.00000464,0.00000704,0.00
 000019,0.00000168,-0.00000334,0.00000240,-0.00000435,-0.00000328,-0.00
 000002,-0.00000241,-0.00000032,0.00000219,0.00000063,0.00000471,-0.000
 00180,0.00000294,-0.00000478,-0.00000006,-0.00000073,0.00000070,0.0000
 0069,0.00001777,-0.00000293,0.00000049,-0.00000500,-0.00000185,0.00002
 860,-0.00003715,0.00003786,0.00000464,0.00000211,0.00000147,-0.0000061
 7,-0.00000380,-0.00000138,-0.00003619,-0.00001604,-0.00009060,0.000002
 85,0.00000095,-0.00002911,0.00010660,0.00049666,-0.00019774,0.00004075
 ,0.00006949,0.00004497,0.00047009,-0.00038976,0.00424055,0.00050392,-0
 .00084972,0.00015811,0.00039934,-0.00025800,-0.00010339,0.00875563,-0.
 01289601,0.00262242,0.00059978,-0.00083002,-0.00241309,-0.14253920,0.1
 3579576,-0.01191821,-0.01014641,0.02116851,-0.00350868,0.14181430,-0.0
 0000353,0.00000580,0.00000373,0.00000053,-0.00000157,0.00000159,-0.000
 00112,-0.00000379,-0.00000088,0.00000157,0.00001355,-0.00001133,-0.000
 00235,-0.00000652,0.00000377,-0.00001106,-0.00001853,-0.00000160,0.000
 00558,0.00000638,-0.00000157,-0.00000176,0.00000632,0.00000067,0.00000
 034,0.00001276,0.00000263,0.00000369,0.00000549,0.00000075,0.00000280,
 -0.00004427,-0.00002120,0.00000446,0.00000757,0.00000079,-0.00001226,0
 .00000944,0.00000948,-0.00000107,0.00000361,-0.00000223,-0.00000207,0.
 00000486,-0.00001508,0.00001097,0.00000857,-0.00001767,-0.00000033,-0.
 00000847,0.00000085,-0.00003874,-0.00004153,0.00006379,0.00000591,0.00
 000445,-0.00000549,0.00005872,-0.00000140,-0.00001848,-0.00001195,-0.0
 0000802,-0.00000466,-0.00001755,-0.00003896,-0.00002832,-0.00009311,-0
 .00000121,-0.00009557,-0.00000138,0.00000470,0.00001453,0.00023290,0.0
 0040316,0.00024639,-0.00004336,-0.00005928,0.00000182,-0.00194392,0.00
 048587,0.00499265,0.00040867,-0.00154272,0.00038441,-0.00015516,0.0002
 1939,-0.00015011,0.01730767,-0.01769978,0.00145384,-0.00098450,0.00018
 740,-0.00248327,0.13102924,-0.24330751,0.03136804,-0.00348113,0.002775
 58,0.00082788,-0.14226671,0.25861864,0.00000694,0.00000098,-0.00000117
 ,-0.00000062,-0.00000062,0.00000139,0.00000409,0.00000069,-0.00000026,
 -0.00001188,-0.00000485,0.00000753,-0.00000311,-0.00000054,0.00000066,
 0.00000169,-0.00000400,-0.00000792,0.00000465,0.00000373,-0.00000312,0
 .00000514,-0.00000277,0.00000475,-0.00000171,0.00000253,-0.00000220,0.
 00000178,0.00000395,0.00000213,-0.00001546,0.00000219,0.00001901,0.000
 00190,0.00000265,-0.00000488,0.00003015,-0.00003149,-0.00000885,-0.000
 00251,-0.00000479,0.00000026,0.00000390,0.00000502,0.00001298,-0.00003
 239,0.00000562,0.00004334,0.00000017,0.00000832,0.00000009,0.00010918,
 0.00015008,-0.00003845,-0.00000791,-0.00001004,0.00000864,-0.00001414,
 -0.00021345,0.00039391,0.00001315,0.00000166,-0.00000239,-0.00000728,0
 .00000222,-0.00001198,0.00036622,0.00035942,-0.00006927,-0.00009581,0.
 00010951,-0.00010444,-0.00159472,0.00191061,-0.00072484,0.00012139,0.0
 0004241,0.00002160,0.00517106,0.00444922,0.01011351,0.00054100,-0.0020
 8629,0.00024062,-0.00030147,-0.00003187,-0.00007918,-0.00779714,0.0119
 9138,0.00109773,-0.00232089,-0.00253483,-0.00598451,-0.01045497,0.0296
 2659,-0.03979796,0.00511894,-0.00723314,0.00277981,0.01116066,-0.03652
 012,0.03209347\\0.00090114,0.00003539,0.00057237,0.00002848,-0.0000207
 5,-0.00000057,0.00000186,-0.00001445,-0.00000244,-0.00094223,0.0000130
 8,-0.00055553,-0.00000018,0.00000070,0.00000151,0.00001163,0.00000366,
 -0.00002589,-0.00001480,-0.00000392,0.00000071,0.00000503,0.00000266,0
 .00000199,-0.00145954,-0.00002344,-0.00087812,0.00000290,0.00000105,-0
 .00000297,0.00146618,0.00002069,0.00086454,-0.00000747,-0.00000289,0.0
 0001150,0.00000438,-0.00000243,-0.00000029,-0.00000064,-0.00000322,0.0
 0000495,0.00000868,0.00000420,0.00000845,-0.00078814,-0.00003562,-0.00
 049769,-0.00000150,0.00000640,-0.00000028,0.00076438,0.00001080,0.0004
 8985,0.00000491,-0.00001236,-0.00000041,0.00001987,0.00004689,-0.00001
 185,-0.00000264,-0.00000880,0.00000034,0.00000410,-0.00000497,0.000003
 38,0.00005686,-0.00011517,-0.00014572,0.00000990,-0.00000937,0.0000130
 8,-0.00008509,0.00010214,0.00014808,0.00000004,0.00000615,-0.00000271,
 0.00004405,-0.00001117,0.00004486,-0.00000145,-0.00000256,-0.00002467,
 -0.00001049,0.00000565,-0.00000343,0.00064610,0.00146281,-0.00073345,0
 .00000339,-0.00000372,-0.00000005,-0.00067297,-0.00144977,0.00071564,0
 .00000023,0.00000104,0.00000516,0.00000304,0.00000131,-0.00000033\\\@


 LOGIC IS A SYSTEMATIC METHOD OF COMING TO THE
 WRONG CONCLUSION WITH CONFIDENCE.
 Job cpu time:       0 days  1 hours 10 minutes 53.8 seconds.
 Elapsed time:       0 days  0 hours  2 minutes 57.9 seconds.
 File lengths (MBytes):  RWF=    320 Int=      0 D2E=      0 Chk=      9 Scr=      1
 Normal termination of Gaussian 16 at Thu Oct 31 22:57:57 2019.
