 Entering Gaussian System, Link 0=g16
 Input=C4H10-opt.gjf
 Output=C4H10-opt.log
 Initial command:
 /home/qingchun/software/g16A_modified_by_qingchun/g16/l1.exe "/scratch/qingchun/gaussian/Gau-10909.inp" -scrdir="/scratch/qingchun/gaussian/"
 Entering Link 1 = /home/qingchun/software/g16A_modified_by_qingchun/g16/l1.exe PID=     10910.
  
 Copyright (c) 1988,1990,1992,1993,1995,1998,2003,2009,2016,
            Gaussian, Inc.  All Rights Reserved.
  
 This is part of the Gaussian(R) 16 program.  It is based on
 the Gaussian(R) 09 system (copyright 2009, Gaussian, Inc.),
 the Gaussian(R) 03 system (copyright 2003, Gaussian, Inc.),
 the Gaussian(R) 98 system (copyright 1998, Gaussian, Inc.),
 the Gaussian(R) 94 system (copyright 1995, Gaussian, Inc.),
 the Gaussian 92(TM) system (copyright 1992, Gaussian, Inc.),
 the Gaussian 90(TM) system (copyright 1990, Gaussian, Inc.),
 the Gaussian 88(TM) system (copyright 1988, Gaussian, Inc.),
 the Gaussian 86(TM) system (copyright 1986, Carnegie Mellon
 University), and the Gaussian 82(TM) system (copyright 1983,
 Carnegie Mellon University). Gaussian is a federally registered
 trademark of Gaussian, Inc.
  
 This software contains proprietary and confidential information,
 including trade secrets, belonging to Gaussian, Inc.
  
 This software is provided under written license and may be
 used, copied, transmitted, or stored only in accord with that
 written license.
  
 The following legend is applicable only to US Government
 contracts under FAR:
  
                    RESTRICTED RIGHTS LEGEND
  
 Use, reproduction and disclosure by the US Government is
 subject to restrictions as set forth in subparagraphs (a)
 and (c) of the Commercial Computer Software - Restricted
 Rights clause in FAR 52.227-19.
  
 Gaussian, Inc.
 340 Quinnipiac St., Bldg. 40, Wallingford CT 06492
  
  
 ---------------------------------------------------------------
 Warning -- This program may not be used in any manner that
 competes with the business of Gaussian, Inc. or will provide
 assistance to any competitor of Gaussian, Inc.  The licensee
 of this program is prohibited from giving any competitor of
 Gaussian, Inc. access to this program.  By using this program,
 the user acknowledges that Gaussian, Inc. is engaged in the
 business of creating and licensing software in the field of
 computational chemistry and represents and warrants to the
 licensee that it is not a competitor of Gaussian, Inc. and that
 it will not use this program in any manner prohibited above.
 ---------------------------------------------------------------
  

 Cite this work as:
 Gaussian 16, Revision A.03,
 M. J. Frisch, G. W. Trucks, H. B. Schlegel, G. E. Scuseria, 
 M. A. Robb, J. R. Cheeseman, G. Scalmani, V. Barone, 
 G. A. Petersson, H. Nakatsuji, X. Li, M. Caricato, A. V. Marenich, 
 J. Bloino, B. G. Janesko, R. Gomperts, B. Mennucci, H. P. Hratchian, 
 J. V. Ortiz, A. F. Izmaylov, J. L. Sonnenberg, D. Williams-Young, 
 F. Ding, F. Lipparini, F. Egidi, J. Goings, B. Peng, A. Petrone, 
 T. Henderson, D. Ranasinghe, V. G. Zakrzewski, J. Gao, N. Rega, 
 G. Zheng, W. Liang, M. Hada, M. Ehara, K. Toyota, R. Fukuda, 
 J. Hasegawa, M. Ishida, T. Nakajima, Y. Honda, O. Kitao, H. Nakai, 
 T. Vreven, K. Throssell, J. A. Montgomery, Jr., J. E. Peralta, 
 F. Ogliaro, M. J. Bearpark, J. J. Heyd, E. N. Brothers, K. N. Kudin, 
 V. N. Staroverov, T. A. Keith, R. Kobayashi, J. Normand, 
 K. Raghavachari, A. P. Rendell, J. C. Burant, S. S. Iyengar, 
 J. Tomasi, M. Cossi, J. M. Millam, M. Klene, C. Adamo, R. Cammi, 
 J. W. Ochterski, R. L. Martin, K. Morokuma, O. Farkas, 
 J. B. Foresman, and D. J. Fox, Gaussian, Inc., Wallingford CT, 2016.
 
 ******************************************
 Gaussian 16:  ES64L-G16RevA.03 25-Dec-2016
                10-Jan-2020 
 ******************************************
 %nprocshared=8
 Will use up to    8 processors via shared memory.
 %mem=30GB
 %chk=C4H10-opt.chk
 ------------------------
 # opt freq b3lyp/cc-pVDZ
 ------------------------
 1/18=20,19=15,26=3,38=1/1,3;
 2/9=110,12=2,17=6,18=5,40=1/2;
 3/5=16,11=2,25=1,30=1,71=1,74=-5/1,2,3;
 4//1;
 5/5=2,38=5/2;
 6/7=2,8=2,9=2,10=2,28=1/1;
 7//1,2,3,16;
 1/18=20,19=15,26=3/3(2);
 2/9=110/2;
 99//99;
 2/9=110/2;
 3/5=16,11=2,25=1,30=1,71=1,74=-5/1,2,3;
 4/5=5,16=3,69=1/1;
 5/5=2,38=5/2;
 7//1,2,3,16;
 1/18=20,19=15,26=3/3(-5);
 2/9=110/2;
 6/7=2,8=2,9=2,10=2,19=2,28=1/1;
 99/9=1/99;
 ---------
 6-31g nt3
 ---------
 Symbolic Z-matrix:
 Charge =  0 Multiplicity = 1
 C                    -1.75879   0.10888   0. 
 H                    -1.40214  -0.89993   0. 
 H                    -1.40212   0.61328  -0.87365 
 H                    -2.82879   0.10889   0. 
 C                    -1.24545   0.83483   1.2574 
 H                    -1.60051   1.84421   1.25643 
 H                    -1.60372   0.33157   2.13105 
 C                     0.29455   0.83238   1.25881 
 H                     0.65281   1.33532   0.38498 
 H                     0.6496   -0.177     1.26017 
 C                     0.80789   1.5588    2.51595 
 H                     0.44955   1.05591   3.38979 
 H                     1.87789   1.55702   2.51697 
 H                     0.4529    2.5682    2.51455 
 

 GradGradGradGradGradGradGradGradGradGradGradGradGradGradGradGradGradGrad
 Berny optimization.
 Initialization pass.
                           ----------------------------
                           !    Initial Parameters    !
                           ! (Angstroms and Degrees)  !
 --------------------------                            --------------------------
 ! Name  Definition              Value          Derivative Info.                !
 --------------------------------------------------------------------------------
 ! R1    R(1,2)                  1.07           estimate D2E/DX2                !
 ! R2    R(1,3)                  1.07           estimate D2E/DX2                !
 ! R3    R(1,4)                  1.07           estimate D2E/DX2                !
 ! R4    R(1,5)                  1.54           estimate D2E/DX2                !
 ! R5    R(5,6)                  1.07           estimate D2E/DX2                !
 ! R6    R(5,7)                  1.07           estimate D2E/DX2                !
 ! R7    R(5,8)                  1.54           estimate D2E/DX2                !
 ! R8    R(8,9)                  1.07           estimate D2E/DX2                !
 ! R9    R(8,10)                 1.07           estimate D2E/DX2                !
 ! R10   R(8,11)                 1.54           estimate D2E/DX2                !
 ! R11   R(11,12)                1.07           estimate D2E/DX2                !
 ! R12   R(11,13)                1.07           estimate D2E/DX2                !
 ! R13   R(11,14)                1.07           estimate D2E/DX2                !
 ! A1    A(2,1,3)              109.4712         estimate D2E/DX2                !
 ! A2    A(2,1,4)              109.4712         estimate D2E/DX2                !
 ! A3    A(2,1,5)              109.4712         estimate D2E/DX2                !
 ! A4    A(3,1,4)              109.4712         estimate D2E/DX2                !
 ! A5    A(3,1,5)              109.4713         estimate D2E/DX2                !
 ! A6    A(4,1,5)              109.4712         estimate D2E/DX2                !
 ! A7    A(1,5,6)              109.4712         estimate D2E/DX2                !
 ! A8    A(1,5,7)              109.4712         estimate D2E/DX2                !
 ! A9    A(1,5,8)              109.4712         estimate D2E/DX2                !
 ! A10   A(6,5,7)              109.4713         estimate D2E/DX2                !
 ! A11   A(6,5,8)              109.4712         estimate D2E/DX2                !
 ! A12   A(7,5,8)              109.4712         estimate D2E/DX2                !
 ! A13   A(5,8,9)              109.4712         estimate D2E/DX2                !
 ! A14   A(5,8,10)             109.4712         estimate D2E/DX2                !
 ! A15   A(5,8,11)             109.4712         estimate D2E/DX2                !
 ! A16   A(9,8,10)             109.4712         estimate D2E/DX2                !
 ! A17   A(9,8,11)             109.4713         estimate D2E/DX2                !
 ! A18   A(10,8,11)            109.4712         estimate D2E/DX2                !
 ! A19   A(8,11,12)            109.4712         estimate D2E/DX2                !
 ! A20   A(8,11,13)            109.4712         estimate D2E/DX2                !
 ! A21   A(8,11,14)            109.4712         estimate D2E/DX2                !
 ! A22   A(12,11,13)           109.4713         estimate D2E/DX2                !
 ! A23   A(12,11,14)           109.4712         estimate D2E/DX2                !
 ! A24   A(13,11,14)           109.4712         estimate D2E/DX2                !
 ! D1    D(2,1,5,6)            179.8889         estimate D2E/DX2                !
 ! D2    D(2,1,5,7)            -60.1111         estimate D2E/DX2                !
 ! D3    D(2,1,5,8)             59.8889         estimate D2E/DX2                !
 ! D4    D(3,1,5,6)             59.8889         estimate D2E/DX2                !
 ! D5    D(3,1,5,7)            179.8889         estimate D2E/DX2                !
 ! D6    D(3,1,5,8)            -60.1111         estimate D2E/DX2                !
 ! D7    D(4,1,5,6)            -60.1111         estimate D2E/DX2                !
 ! D8    D(4,1,5,7)             59.8889         estimate D2E/DX2                !
 ! D9    D(4,1,5,8)            179.8889         estimate D2E/DX2                !
 ! D10   D(1,5,8,9)             59.9786         estimate D2E/DX2                !
 ! D11   D(1,5,8,10)           -60.0214         estimate D2E/DX2                !
 ! D12   D(1,5,8,11)           179.9786         estimate D2E/DX2                !
 ! D13   D(6,5,8,9)            -60.0214         estimate D2E/DX2                !
 ! D14   D(6,5,8,10)           179.9786         estimate D2E/DX2                !
 ! D15   D(6,5,8,11)            59.9786         estimate D2E/DX2                !
 ! D16   D(7,5,8,9)            179.9786         estimate D2E/DX2                !
 ! D17   D(7,5,8,10)            59.9786         estimate D2E/DX2                !
 ! D18   D(7,5,8,11)           -60.0214         estimate D2E/DX2                !
 ! D19   D(5,8,11,12)           59.9953         estimate D2E/DX2                !
 ! D20   D(5,8,11,13)          179.9953         estimate D2E/DX2                !
 ! D21   D(5,8,11,14)          -60.0047         estimate D2E/DX2                !
 ! D22   D(9,8,11,12)          179.9953         estimate D2E/DX2                !
 ! D23   D(9,8,11,13)          -60.0047         estimate D2E/DX2                !
 ! D24   D(9,8,11,14)           59.9953         estimate D2E/DX2                !
 ! D25   D(10,8,11,12)         -60.0047         estimate D2E/DX2                !
 ! D26   D(10,8,11,13)          59.9953         estimate D2E/DX2                !
 ! D27   D(10,8,11,14)         179.9953         estimate D2E/DX2                !
 --------------------------------------------------------------------------------
 Trust Radius=3.00D-01 FncErr=1.00D-07 GrdErr=1.00D-06 EigMax=2.50D+02 EigMin=1.00D-04
 Number of steps in this run=     74 maximum allowed number of steps=    100.
 GradGradGradGradGradGradGradGradGradGradGradGradGradGradGradGradGradGrad

                          Input orientation:                          
 ---------------------------------------------------------------------
 Center     Atomic      Atomic             Coordinates (Angstroms)
 Number     Number       Type             X           Y           Z
 ---------------------------------------------------------------------
      1          6           0       -1.758794    0.108878    0.000000
      2          1           0       -1.402140   -0.899932    0.000000
      3          1           0       -1.402121    0.613276   -0.873652
      4          1           0       -2.828794    0.108891    0.000000
      5          6           0       -1.245452    0.834834    1.257405
      6          1           0       -1.600508    1.844207    1.256427
      7          1           0       -1.603721    0.331566    2.131055
      8          6           0        0.294546    0.832378    1.258814
      9          1           0        0.652814    1.335320    0.384975
     10          1           0        0.649602   -0.176995    1.260167
     11          6           0        0.807888    1.558803    2.515948
     12          1           0        0.449551    1.055909    3.389785
     13          1           0        1.877886    1.557025    2.516968
     14          1           0        0.452900    2.568199    2.514553
 ---------------------------------------------------------------------
                    Distance matrix (angstroms):
                    1          2          3          4          5
     1  C    0.000000
     2  H    1.070000   0.000000
     3  H    1.070000   1.747302   0.000000
     4  H    1.070000   1.747303   1.747303   0.000000
     5  C    1.540000   2.148263   2.148263   2.148263   0.000000
     6  H    2.148263   3.024609   2.468154   2.469538   1.070000
     7  H    2.148263   2.469538   3.024610   2.468154   1.070000
     8  C    2.514810   2.732078   2.733878   3.444313   1.540000
     9  H    2.732804   3.060619   2.515601   3.711324   2.148263
    10  H    2.733151   2.514021   3.063867   3.710659   2.148263
    11  C    3.875582   4.154467   4.155423   4.653783   2.514809
    12  H    4.155033   4.329517   4.669208   4.809889   2.732939
    13  H    4.653783   4.809400   4.810968   5.530376   3.444314
    14  H    4.154856   4.668199   4.329290   4.810477   2.733016
                    6          7          8          9         10
     6  H    0.000000
     7  H    1.747303   0.000000
     8  C    2.148263   2.148263   0.000000
     9  H    2.468979   3.024610   1.070000   0.000000
    10  H    3.024610   2.468713   1.070000   1.747303   0.000000
    11  C    2.732804   2.733151   1.540000   2.148263   2.148263
    12  H    3.061923   2.514956   2.148263   3.024610   2.468875
    13  H    3.710884   3.711100   2.148263   2.468875   2.468816
    14  H    2.514663   3.062563   2.148263   2.468817   3.024610
                   11         12         13         14
    11  C    0.000000
    12  H    1.070000   0.000000
    13  H    1.070000   1.747303   0.000000
    14  H    1.070000   1.747303   1.747303   0.000000
 Stoichiometry    C4H10
 Framework group  C1[X(C4H10)]
 Deg. of freedom    36
 Full point group                 C1      NOp   1
 Largest Abelian subgroup         C1      NOp   1
 Largest concise Abelian subgroup C1      NOp   1
                         Standard orientation:                         
 ---------------------------------------------------------------------
 Center     Atomic      Atomic             Coordinates (Angstroms)
 Number     Number       Type             X           Y           Z
 ---------------------------------------------------------------------
      1          6           0       -1.933553    0.128084    0.000127
      2          1           0       -2.034602    0.739064   -0.872450
      3          1           0       -2.035847    0.735783    0.874849
      4          1           0       -2.693619   -0.625040   -0.001829
      5          6           0       -0.546964   -0.541969   -0.000143
      6          1           0       -0.445178   -1.151425    0.873414
      7          1           0       -0.445408   -1.151194   -0.873889
      8          6           0        0.546964    0.541969   -0.000143
      9          1           0        0.445178    1.151426    0.873414
     10          1           0        0.445408    1.151194   -0.873889
     11          6           0        1.933553   -0.128084    0.000127
     12          1           0        2.035307   -0.737605   -0.873388
     13          1           0        2.693620    0.625042    0.000045
     14          1           0        2.035141   -0.737245    0.873914
 ---------------------------------------------------------------------
 Rotational constants (GHZ):          23.0583338           3.7383891           3.4902856
 Standard basis: CC-pVDZ (5D, 7F)
 There are   110 symmetry adapted cartesian basis functions of A   symmetry.
 There are   106 symmetry adapted basis functions of A   symmetry.
   106 basis functions,   202 primitive gaussians,   110 cartesian basis functions
    17 alpha electrons       17 beta electrons
       nuclear repulsion energy       131.8273013993 Hartrees.
 NAtoms=   14 NActive=   14 NUniq=   14 SFac= 1.00D+00 NAtFMM=   60 NAOKFM=F Big=F
 Integral buffers will be    131072 words long.
 Raffenetti 2 integral format.
 Two-electron integral symmetry is turned on.
 One-electron integrals computed using PRISM.
 NBasis=   106 RedAO= T EigKep=  3.74D-03  NBF=   106
 NBsUse=   106 1.00D-06 EigRej= -1.00D+00 NBFU=   106
 ExpMin= 1.22D-01 ExpMax= 6.67D+03 ExpMxC= 2.28D+02 IAcc=3 IRadAn=         5 AccDes= 0.00D+00
 Harris functional with IExCor=  402 and IRadAn=       5 diagonalized for initial guess.
 HarFok:  IExCor=  402 AccDes= 0.00D+00 IRadAn=         5 IDoV= 1 UseB2=F ITyADJ=14
 ICtDFT=  3500011 ScaDFX=  1.000000  1.000000  1.000000  1.000000
 FoFCou: FMM=F IPFlag=           0 FMFlag=      100000 FMFlg1=           0
         NFxFlg=           0 DoJE=T BraDBF=F KetDBF=T FulRan=T
         wScrn=  0.000000 ICntrl=       500 IOpCl=  0 I1Cent=   200000004 NGrid=           0
         NMat0=    1 NMatS0=      1 NMatT0=    0 NMatD0=    1 NMtDS0=    0 NMtDT0=    0
 Petite list used in FoFCou.
 Requested convergence on RMS density matrix=1.00D-08 within 128 cycles.
 Requested convergence on MAX density matrix=1.00D-06.
 Requested convergence on             energy=1.00D-06.
 No special actions if energy rises.
 Integral accuracy reduced to 1.0D-05 until final iterations.
 Initial convergence to 1.0D-05 achieved.  Increase integral accuracy.
 SCF Done:  E(RB3LYP) =  -158.449287650     A.U. after   11 cycles
            NFock= 11  Conv=0.23D-08     -V/T= 2.0065

 **********************************************************************

            Population analysis using the SCF density.

 **********************************************************************

 Orbital symmetries:
       Occupied  (A) (A) (A) (A) (A) (A) (A) (A) (A) (A) (A) (A)
                 (A) (A) (A) (A) (A)
       Virtual   (A) (A) (A) (A) (A) (A) (A) (A) (A) (A) (A) (A)
                 (A) (A) (A) (A) (A) (A) (A) (A) (A) (A) (A) (A)
                 (A) (A) (A) (A) (A) (A) (A) (A) (A) (A) (A) (A)
                 (A) (A) (A) (A) (A) (A) (A) (A) (A) (A) (A) (A)
                 (A) (A) (A) (A) (A) (A) (A) (A) (A) (A) (A) (A)
                 (A) (A) (A) (A) (A) (A) (A) (A) (A) (A) (A) (A)
                 (A) (A) (A) (A) (A) (A) (A) (A) (A) (A) (A) (A)
                 (A) (A) (A) (A) (A)
 The electronic state is 1-A.
 Alpha  occ. eigenvalues --  -10.17039 -10.17022 -10.16376 -10.16375  -0.79438
 Alpha  occ. eigenvalues --   -0.72382  -0.62951  -0.58007  -0.47409  -0.42674
 Alpha  occ. eigenvalues --   -0.41459  -0.41282  -0.36726  -0.35464  -0.33226
 Alpha  occ. eigenvalues --   -0.33057  -0.31004
 Alpha virt. eigenvalues --    0.06371   0.08599   0.10166   0.10794   0.14203
 Alpha virt. eigenvalues --    0.15212   0.15505   0.16407   0.17399   0.18084
 Alpha virt. eigenvalues --    0.22633   0.22902   0.24113   0.40587   0.41281
 Alpha virt. eigenvalues --    0.41445   0.43423   0.45132   0.50056   0.50791
 Alpha virt. eigenvalues --    0.58771   0.61104   0.65359   0.66400   0.66551
 Alpha virt. eigenvalues --    0.67331   0.68295   0.68334   0.68780   0.69687
 Alpha virt. eigenvalues --    0.70985   0.72663   0.73211   0.75202   0.75977
 Alpha virt. eigenvalues --    0.89118   0.91102   0.96890   1.09165   1.21728
 Alpha virt. eigenvalues --    1.22824   1.23439   1.23780   1.32042   1.33492
 Alpha virt. eigenvalues --    1.43749   1.43826   1.46921   1.49418   1.57076
 Alpha virt. eigenvalues --    1.62702   1.62910   1.63329   1.64028   1.66119
 Alpha virt. eigenvalues --    1.67198   1.68862   1.72257   1.72284   1.72604
 Alpha virt. eigenvalues --    1.73324   1.74099   1.77228   1.77515   1.77531
 Alpha virt. eigenvalues --    1.88163   1.96325   1.97424   1.98122   1.98473
 Alpha virt. eigenvalues --    2.10495   2.10848   2.19345   2.24763   2.24982
 Alpha virt. eigenvalues --    2.28029   2.35245   2.35730   2.37276   2.46908
 Alpha virt. eigenvalues --    2.49619   2.51060   2.51150   2.55685   2.57514
 Alpha virt. eigenvalues --    2.62988   2.66257   2.75255   2.75260
          Condensed to atoms (all electrons):
               1          2          3          4          5          6
     1  C    4.469627   0.392399   0.392380   0.374894   0.439631  -0.023631
     2  H    0.392399   0.684312  -0.031522  -0.030610  -0.023070   0.009519
     3  H    0.392380  -0.031522   0.684315  -0.030621  -0.023016  -0.009506
     4  H    0.374894  -0.030610  -0.030621   0.700898  -0.010699  -0.004789
     5  C    0.439631  -0.023070  -0.023016  -0.010699   4.544232   0.375875
     6  H   -0.023631   0.009519  -0.009506  -0.004789   0.375875   0.728680
     7  H   -0.023636  -0.009434   0.009519  -0.004862   0.375864  -0.045900
     8  C   -0.042611  -0.004993  -0.004961   0.005616   0.454700  -0.026490
     9  H   -0.004177  -0.002160   0.007302   0.000085  -0.026505  -0.012570
    10  H   -0.004213   0.007319  -0.002154   0.000086  -0.026450   0.010702
    11  C    0.005546   0.000439   0.000435  -0.000485  -0.042611  -0.004199
    12  H    0.000437  -0.000046   0.000061   0.000001  -0.004976  -0.002158
    13  H   -0.000485   0.000001   0.000001   0.000020   0.005616   0.000086
    14  H    0.000437   0.000061  -0.000047   0.000001  -0.004978   0.007312
               7          8          9         10         11         12
     1  C   -0.023636  -0.042611  -0.004177  -0.004213   0.005546   0.000437
     2  H   -0.009434  -0.004993  -0.002160   0.007319   0.000439  -0.000046
     3  H    0.009519  -0.004961   0.007302  -0.002154   0.000435   0.000061
     4  H   -0.004862   0.005616   0.000085   0.000086  -0.000485   0.000001
     5  C    0.375864   0.454700  -0.026505  -0.026450  -0.042611  -0.004976
     6  H   -0.045900  -0.026490  -0.012570   0.010702  -0.004199  -0.002158
     7  H    0.728667  -0.026465   0.010704  -0.012580  -0.004191   0.007309
     8  C   -0.026465   4.544232   0.375874   0.375865   0.439631  -0.023043
     9  H    0.010704   0.375874   0.728694  -0.045900  -0.023633   0.009520
    10  H   -0.012580   0.375865  -0.045900   0.728652  -0.023633  -0.009468
    11  C   -0.004191   0.439631  -0.023633  -0.023633   4.469627   0.392387
    12  H    0.007309  -0.023043   0.009520  -0.009468   0.392387   0.684316
    13  H    0.000085  -0.010699  -0.004825  -0.004826   0.374894  -0.030616
    14  H   -0.002156  -0.023043  -0.009471   0.009518   0.392392  -0.031522
              13         14
     1  C   -0.000485   0.000437
     2  H    0.000001   0.000061
     3  H    0.000001  -0.000047
     4  H    0.000020   0.000001
     5  C    0.005616  -0.004978
     6  H    0.000086   0.007312
     7  H    0.000085  -0.002156
     8  C   -0.010699  -0.023043
     9  H   -0.004825  -0.009471
    10  H   -0.004826   0.009518
    11  C    0.374894   0.392392
    12  H   -0.030616  -0.031522
    13  H    0.700898  -0.030616
    14  H   -0.030616   0.684312
 Mulliken charges:
               1
     1  C    0.023402
     2  H    0.007785
     3  H    0.007814
     4  H    0.000466
     5  C   -0.033611
     6  H   -0.002932
     7  H   -0.002924
     8  C   -0.033611
     9  H   -0.002938
    10  H   -0.002918
    11  C    0.023402
    12  H    0.007798
    13  H    0.000466
    14  H    0.007800
 Sum of Mulliken charges =   0.00000
 Mulliken charges with hydrogens summed into heavy atoms:
               1
     1  C    0.039467
     5  C   -0.039467
     8  C   -0.039467
    11  C    0.039467
 Electronic spatial extent (au):  <R**2>=            414.8774
 Charge=              0.0000 electrons
 Dipole moment (field-independent basis, Debye):
    X=              0.0000    Y=              0.0000    Z=              0.0000  Tot=              0.0000
 Quadrupole moment (field-independent basis, Debye-Ang):
   XX=            -29.4856   YY=            -28.3256   ZZ=            -27.5163
   XY=              0.3722   XZ=             -0.0001   YZ=             -0.0001
 Traceless Quadrupole moment (field-independent basis, Debye-Ang):
   XX=             -1.0431   YY=              0.1170   ZZ=              0.9262
   XY=              0.3722   XZ=             -0.0001   YZ=             -0.0001
 Octapole moment (field-independent basis, Debye-Ang**2):
  XXX=              0.0000  YYY=              0.0000  ZZZ=              0.0021  XYY=              0.0000
  XXY=              0.0000  XXZ=             -0.0011  XZZ=              0.0000  YZZ=              0.0000
  YYZ=             -0.0017  XYZ=             -0.0007
 Hexadecapole moment (field-independent basis, Debye-Ang**3):
 XXXX=           -445.2054 YYYY=            -89.5478 ZZZZ=            -55.8746 XXXY=              6.2798
 XXXZ=              0.0021 YYYX=              1.0064 YYYZ=             -0.0018 ZZZX=             -0.0052
 ZZZY=              0.0005 XXYY=            -85.3197 XXZZ=            -81.0086 YYZZ=            -22.5955
 XXYZ=              0.0035 YYXZ=              0.0033 ZZXY=             -1.1148
 N-N= 1.318273013993D+02 E-N=-6.294804007343D+02  KE= 1.574291547886D+02
 Calling FoFJK, ICntrl=      2127 FMM=F ISym2X=0 I1Cent= 0 IOpClX= 0 NMat=1 NMatS=1 NMatT=0.
 ***** Axes restored to original set *****
 -------------------------------------------------------------------
 Center     Atomic                   Forces (Hartrees/Bohr)
 Number     Number              X              Y              Z
 -------------------------------------------------------------------
      1        6           0.003211099    0.015630139    0.027042460
      2        1           0.005945306   -0.021695215   -0.002986850
      3        1           0.005957550    0.008250021   -0.020283509
      4        1          -0.022622074   -0.002513141   -0.004369715
      5        6           0.023184997   -0.019385796   -0.033426926
      6        1          -0.008665157    0.021732582    0.002973897
      7        1          -0.008718495   -0.008242503    0.020304818
      8        6          -0.023185055    0.019397136    0.033420369
      9        1           0.008725286    0.008232844   -0.020307263
     10        1           0.008658370   -0.021735284   -0.002964177
     11        6          -0.003211047   -0.015639460   -0.027037224
     12        1          -0.005984788   -0.008224662    0.020285713
     13        1           0.022622044    0.002487452    0.004384598
     14        1          -0.005918036    0.021705887    0.002963809
 -------------------------------------------------------------------
 Cartesian Forces:  Max     0.033426926 RMS     0.016469585

 GradGradGradGradGradGradGradGradGradGradGradGradGradGradGradGradGradGrad
 Berny optimization.
 FormGI is forming the generalized inverse of G from B-inverse, IUseBI=4.
 Internal  Forces:  Max     0.023375538 RMS     0.009554440
 Search for a local minimum.
 Step number   1 out of a maximum of   74
 All quantities printed in internal units (Hartrees-Bohrs-Radians)
 Mixed Optimization -- RFO/linear search
 Second derivative matrix not updated -- first step.
 ITU=  0
     Eigenvalues ---    0.00237   0.00237   0.00237   0.03840   0.03840
     Eigenvalues ---    0.04896   0.04896   0.05720   0.05720   0.05720
     Eigenvalues ---    0.05720   0.07655   0.07655   0.11701   0.11701
     Eigenvalues ---    0.16000   0.16000   0.16000   0.16000   0.16000
     Eigenvalues ---    0.16000   0.21948   0.21948   0.28519   0.28519
     Eigenvalues ---    0.28519   0.37230   0.37230   0.37230   0.37230
     Eigenvalues ---    0.37230   0.37230   0.37230   0.37230   0.37230
     Eigenvalues ---    0.37230
 RFO step:  Lambda=-1.70132952D-02 EMin= 2.36824144D-03
 Linear search not attempted -- first point.
 Iteration  1 RMS(Cart)=  0.04744552 RMS(Int)=  0.00059288
 Iteration  2 RMS(Cart)=  0.00057077 RMS(Int)=  0.00020101
 Iteration  3 RMS(Cart)=  0.00000026 RMS(Int)=  0.00020101
 Variable       Old X    -DE/DX   Delta X   Delta X   Delta X     New X
                                 (Linear)    (Quad)   (Total)
    R1        2.02201   0.02244   0.00000   0.05763   0.05763   2.07964
    R2        2.02201   0.02244   0.00000   0.05763   0.05763   2.07964
    R3        2.02201   0.02262   0.00000   0.05811   0.05811   2.08011
    R4        2.91018   0.00315   0.00000   0.01041   0.01041   2.92059
    R5        2.02201   0.02337   0.00000   0.06004   0.06004   2.08205
    R6        2.02201   0.02337   0.00000   0.06004   0.06004   2.08205
    R7        2.91018   0.00171   0.00000   0.00564   0.00564   2.91582
    R8        2.02201   0.02338   0.00000   0.06004   0.06004   2.08205
    R9        2.02201   0.02337   0.00000   0.06004   0.06004   2.08204
   R10        2.91018   0.00315   0.00000   0.01041   0.01041   2.92059
   R11        2.02201   0.02244   0.00000   0.05763   0.05763   2.07964
   R12        2.02201   0.02262   0.00000   0.05811   0.05811   2.08011
   R13        2.02201   0.02244   0.00000   0.05763   0.05763   2.07964
    A1        1.91063  -0.00346   0.00000  -0.02238  -0.02245   1.88818
    A2        1.91063  -0.00425   0.00000  -0.02263  -0.02298   1.88765
    A3        1.91063   0.00301   0.00000   0.01633   0.01611   1.92674
    A4        1.91063  -0.00426   0.00000  -0.02263  -0.02299   1.88765
    A5        1.91063   0.00302   0.00000   0.01636   0.01613   1.92677
    A6        1.91063   0.00594   0.00000   0.03496   0.03459   1.94522
    A7        1.91063  -0.00250   0.00000  -0.00315  -0.00332   1.90731
    A8        1.91063  -0.00250   0.00000  -0.00312  -0.00329   1.90734
    A9        1.91063   0.01135   0.00000   0.05713   0.05680   1.96743
   A10        1.91063   0.00014   0.00000  -0.02886  -0.02914   1.88149
   A11        1.91063  -0.00324   0.00000  -0.01102  -0.01148   1.89915
   A12        1.91063  -0.00324   0.00000  -0.01098  -0.01145   1.89919
   A13        1.91063  -0.00324   0.00000  -0.01099  -0.01145   1.89918
   A14        1.91063  -0.00324   0.00000  -0.01101  -0.01148   1.89916
   A15        1.91063   0.01135   0.00000   0.05713   0.05680   1.96743
   A16        1.91063   0.00014   0.00000  -0.02886  -0.02914   1.88149
   A17        1.91063  -0.00250   0.00000  -0.00314  -0.00331   1.90733
   A18        1.91063  -0.00250   0.00000  -0.00314  -0.00330   1.90733
   A19        1.91063   0.00302   0.00000   0.01634   0.01612   1.92675
   A20        1.91063   0.00594   0.00000   0.03496   0.03459   1.94522
   A21        1.91063   0.00302   0.00000   0.01635   0.01612   1.92676
   A22        1.91063  -0.00425   0.00000  -0.02263  -0.02298   1.88765
   A23        1.91063  -0.00346   0.00000  -0.02238  -0.02245   1.88818
   A24        1.91063  -0.00425   0.00000  -0.02263  -0.02298   1.88765
    D1        3.13965   0.00118   0.00000   0.01615   0.01617  -3.12736
    D2       -1.04914  -0.00172   0.00000  -0.02304  -0.02320  -1.07234
    D3        1.04526  -0.00027   0.00000  -0.00341  -0.00348   1.04178
    D4        1.04526   0.00173   0.00000   0.02354   0.02371   1.06897
    D5        3.13965  -0.00117   0.00000  -0.01565  -0.01566   3.12399
    D6       -1.04914   0.00028   0.00000   0.00398   0.00406  -1.04508
    D7       -1.04914   0.00145   0.00000   0.01984   0.01993  -1.02920
    D8        1.04526  -0.00144   0.00000  -0.01935  -0.01944   1.02582
    D9        3.13965   0.00001   0.00000   0.00028   0.00028   3.13994
   D10        1.04682  -0.00190   0.00000  -0.02442  -0.02434   1.02249
   D11       -1.04757   0.00190   0.00000   0.02440   0.02432  -1.02325
   D12        3.14122   0.00000   0.00000   0.00000   0.00000   3.14122
   D13       -1.04757  -0.00380   0.00000  -0.04880  -0.04863  -1.09620
   D14        3.14122   0.00000   0.00000   0.00002   0.00002   3.14124
   D15        1.04682  -0.00190   0.00000  -0.02438  -0.02430   1.02253
   D16        3.14122   0.00000   0.00000   0.00002   0.00002   3.14124
   D17        1.04682   0.00380   0.00000   0.04884   0.04868   1.09550
   D18       -1.04757   0.00190   0.00000   0.02444   0.02436  -1.02321
   D19        1.04712  -0.00027   0.00000  -0.00371  -0.00378   1.04334
   D20        3.14151   0.00000   0.00000  -0.00001  -0.00001   3.14150
   D21       -1.04728   0.00027   0.00000   0.00369   0.00376  -1.04352
   D22        3.14151   0.00117   0.00000   0.01590   0.01592  -3.12575
   D23       -1.04728   0.00145   0.00000   0.01960   0.01969  -1.02759
   D24        1.04712   0.00172   0.00000   0.02330   0.02346   1.07058
   D25       -1.04728  -0.00172   0.00000  -0.02329  -0.02345  -1.07073
   D26        1.04712  -0.00145   0.00000  -0.01959  -0.01968   1.02743
   D27        3.14151  -0.00117   0.00000  -0.01589  -0.01591   3.12560
         Item               Value     Threshold  Converged?
 Maximum Force            0.023376     0.000450     NO 
 RMS     Force            0.009554     0.000300     NO 
 Maximum Displacement     0.117711     0.001800     NO 
 RMS     Displacement     0.047051     0.001200     NO 
 Predicted change in Energy=-9.036667D-03
 GradGradGradGradGradGradGradGradGradGradGradGradGradGradGradGradGradGrad

                          Input orientation:                          
 ---------------------------------------------------------------------
 Center     Atomic      Atomic             Coordinates (Angstroms)
 Number     Number       Type             X           Y           Z
 ---------------------------------------------------------------------
      1          6           0       -1.790454    0.097323   -0.020056
      2          1           0       -1.439761   -0.945539   -0.043418
      3          1           0       -1.439358    0.598313   -0.934843
      4          1           0       -2.891083    0.089446   -0.034201
      5          6           0       -1.246420    0.820541    1.232772
      6          1           0       -1.619948    1.856984    1.245467
      7          1           0       -1.623156    0.315631    2.136673
      8          6           0        0.295513    0.846670    1.283446
      9          1           0        0.672255    1.351261    0.379368
     10          1           0        0.669036   -0.189778    1.271117
     11          6           0        0.839548    1.570350    2.536008
     12          1           0        0.486978    1.070753    3.450989
     13          1           0        1.940176    1.576666    2.551055
     14          1           0        0.490332    2.613736    2.558067
 ---------------------------------------------------------------------
                    Distance matrix (angstroms):
                    1          2          3          4          5
     1  C    0.000000
     2  H    1.100497   0.000000
     3  H    1.100497   1.782727   0.000000
     4  H    1.100749   1.782587   1.782585   0.000000
     5  C    1.545509   2.187483   2.187503   2.201054   0.000000
     6  H    2.174173   3.089956   2.524009   2.525377   1.101771
     7  H    2.174196   2.525269   3.089969   2.524182   1.101772
     8  C    2.571361   2.825555   2.827060   3.530436   1.542987
     9  H    2.792282   3.148754   2.598653   3.802710   2.165935
    10  H    2.792605   2.597345   3.151615   3.802140   2.165914
    11  C    3.952238   4.263612   4.264397   4.766200   2.571361
    12  H    4.264085   4.470865   4.813471   4.951849   2.826262
    13  H    4.766200   4.951442   4.952768   5.677714   3.530437
    14  H    4.263923   4.812632   4.470578   4.952360   2.826351
                    6          7          8          9         10
     6  H    0.000000
     7  H    1.780458   0.000000
     8  C    2.165911   2.165939   0.000000
     9  H    2.502015   3.070760   1.101773   0.000000
    10  H    3.070723   2.501753   1.101770   1.780458   0.000000
    11  C    2.792271   2.792616   1.545509   2.174186   2.174184
    12  H    3.149861   2.598134   2.187490   3.089963   2.524664
    13  H    3.802318   3.802533   2.201054   2.524808   2.524750
    14  H    2.597860   3.150507   2.187495   2.524613   3.089963
                   11         12         13         14
    11  C    0.000000
    12  H    1.100497   0.000000
    13  H    1.100749   1.782587   0.000000
    14  H    1.100497   1.782728   1.782585   0.000000
 Stoichiometry    C4H10
 Framework group  C1[X(C4H10)]
 Deg. of freedom    36
 Full point group                 C1      NOp   1
 Largest Abelian subgroup         C1      NOp   1
 Largest concise Abelian subgroup C1      NOp   1
                         Standard orientation:                         
 ---------------------------------------------------------------------
 Center     Atomic      Atomic             Coordinates (Angstroms)
 Number     Number       Type             X           Y           Z
 ---------------------------------------------------------------------
      1          6           0       -1.972318    0.122499    0.000123
      2          1           0       -2.103740    0.755742   -0.890284
      3          1           0       -2.104770    0.752832    0.892441
      4          1           0       -2.765641   -0.640577   -0.001578
      5          6           0       -0.567764   -0.522346   -0.000142
      6          1           0       -0.461326   -1.162816    0.890009
      7          1           0       -0.461545   -1.162637   -0.890449
      8          6           0        0.567765    0.522346   -0.000143
      9          1           0        0.461329    1.162864    0.889976
     10          1           0        0.461543    1.162589   -0.890481
     11          6           0        1.972318   -0.122499    0.000126
     12          1           0        2.104330   -0.754486   -0.891087
     13          1           0        2.765641    0.640578    0.000024
     14          1           0        2.104179   -0.754090    0.891641
 ---------------------------------------------------------------------
 Rotational constants (GHZ):          23.1046858           3.5684395           3.3534890
 Standard basis: CC-pVDZ (5D, 7F)
 There are   110 symmetry adapted cartesian basis functions of A   symmetry.
 There are   106 symmetry adapted basis functions of A   symmetry.
   106 basis functions,   202 primitive gaussians,   110 cartesian basis functions
    17 alpha electrons       17 beta electrons
       nuclear repulsion energy       129.5457460023 Hartrees.
 NAtoms=   14 NActive=   14 NUniq=   14 SFac= 1.00D+00 NAtFMM=   60 NAOKFM=F Big=F
 Integral buffers will be    131072 words long.
 Raffenetti 2 integral format.
 Two-electron integral symmetry is turned on.
 One-electron integrals computed using PRISM.
 NBasis=   106 RedAO= T EigKep=  3.99D-03  NBF=   106
 NBsUse=   106 1.00D-06 EigRej= -1.00D+00 NBFU=   106
 Initial guess from the checkpoint file:  "C4H10-opt.chk"
 B after Tr=     0.000000    0.000000    0.000000
         Rot=    1.000000    0.000028   -0.000002    0.000365 Ang=   0.04 deg.
 ExpMin= 1.22D-01 ExpMax= 6.67D+03 ExpMxC= 2.28D+02 IAcc=2 IRadAn=         4 AccDes= 0.00D+00
 Harris functional with IExCor=  402 and IRadAn=       4 diagonalized for initial guess.
 HarFok:  IExCor=  402 AccDes= 0.00D+00 IRadAn=         4 IDoV= 1 UseB2=F ITyADJ=14
 ICtDFT=  3500011 ScaDFX=  1.000000  1.000000  1.000000  1.000000
 FoFCou: FMM=F IPFlag=           0 FMFlag=      100000 FMFlg1=           0
         NFxFlg=           0 DoJE=T BraDBF=F KetDBF=T FulRan=T
         wScrn=  0.000000 ICntrl=       500 IOpCl=  0 I1Cent=   200000004 NGrid=           0
         NMat0=    1 NMatS0=      1 NMatT0=    0 NMatD0=    1 NMtDS0=    0 NMtDT0=    0
 Petite list used in FoFCou.
 Requested convergence on RMS density matrix=1.00D-08 within 128 cycles.
 Requested convergence on MAX density matrix=1.00D-06.
 Requested convergence on             energy=1.00D-06.
 No special actions if energy rises.
 Integral accuracy reduced to 1.0D-05 until final iterations.
 Initial convergence to 1.0D-05 achieved.  Increase integral accuracy.
 SCF Done:  E(RB3LYP) =  -158.458240494     A.U. after    9 cycles
            NFock=  9  Conv=0.63D-08     -V/T= 2.0095
 Calling FoFJK, ICntrl=      2127 FMM=F ISym2X=0 I1Cent= 0 IOpClX= 0 NMat=1 NMatS=1 NMatT=0.
 ***** Axes restored to original set *****
 -------------------------------------------------------------------
 Center     Atomic                   Forces (Hartrees/Bohr)
 Number     Number              X              Y              Z
 -------------------------------------------------------------------
      1        6           0.003200728    0.004973217    0.008609976
      2        1          -0.000016841   -0.001673601   -0.001328764
      3        1          -0.000006450   -0.000322500   -0.002111725
      4        1          -0.000589653   -0.000178253   -0.000320371
      5        6           0.005411875   -0.005125700   -0.008846986
      6        1          -0.001873632    0.001471476    0.001846312
      7        1          -0.001863532    0.000866237    0.002192606
      8        6          -0.005411859    0.005132756    0.008842848
      9        1           0.001868911   -0.000869340   -0.002191925
     10        1           0.001868230   -0.001473597   -0.001843946
     11        6          -0.003200723   -0.004975516   -0.008608658
     12        1           0.000010328    0.000320344    0.002112523
     13        1           0.000589647    0.000182630    0.000317845
     14        1           0.000012971    0.001671847    0.001330264
 -------------------------------------------------------------------
 Cartesian Forces:  Max     0.008846986 RMS     0.003590110

 GradGradGradGradGradGradGradGradGradGradGradGradGradGradGradGradGradGrad
 Berny optimization.
 Using GEDIIS/GDIIS optimizer.
 FormGI is forming the generalized inverse of G from B-inverse, IUseBI=4.
 Internal  Forces:  Max     0.006151695 RMS     0.001538465
 Search for a local minimum.
 Step number   2 out of a maximum of   74
 All quantities printed in internal units (Hartrees-Bohrs-Radians)
 Mixed Optimization -- RFO/linear search
 Update second derivatives using D2CorX and points    1    2
 DE= -8.95D-03 DEPred=-9.04D-03 R= 9.91D-01
 TightC=F SS=  1.41D+00  RLast= 2.49D-01 DXNew= 5.0454D-01 7.4640D-01
 Trust test= 9.91D-01 RLast= 2.49D-01 DXMaxT set to 5.05D-01
 ITU=  1  0
 Use linear search instead of GDIIS.
     Eigenvalues ---    0.00237   0.00237   0.00237   0.03472   0.03472
     Eigenvalues ---    0.04694   0.04775   0.05423   0.05423   0.05542
     Eigenvalues ---    0.05549   0.08237   0.08246   0.12147   0.12147
     Eigenvalues ---    0.15521   0.16000   0.16000   0.16000   0.16000
     Eigenvalues ---    0.16121   0.21959   0.22282   0.27797   0.28519
     Eigenvalues ---    0.28520   0.36931   0.37230   0.37230   0.37230
     Eigenvalues ---    0.37230   0.37230   0.37230   0.37230   0.37230
     Eigenvalues ---    0.38770
 RFO step:  Lambda=-7.54913124D-04 EMin= 2.36824144D-03
 Quartic linear search produced a step of  0.09277.
 Iteration  1 RMS(Cart)=  0.00752788 RMS(Int)=  0.00008785
 Iteration  2 RMS(Cart)=  0.00008710 RMS(Int)=  0.00004325
 Iteration  3 RMS(Cart)=  0.00000001 RMS(Int)=  0.00004325
 Variable       Old X    -DE/DX   Delta X   Delta X   Delta X     New X
                                 (Linear)    (Quad)   (Total)
    R1        2.07964   0.00161   0.00535   0.00154   0.00689   2.08653
    R2        2.07964   0.00161   0.00535   0.00154   0.00688   2.08652
    R3        2.08011   0.00060   0.00539  -0.00145   0.00394   2.08405
    R4        2.92059  -0.00615   0.00097  -0.02407  -0.02310   2.89749
    R5        2.08205   0.00204   0.00557   0.00268   0.00825   2.09029
    R6        2.08205   0.00204   0.00557   0.00267   0.00824   2.09029
    R7        2.91582  -0.00426   0.00052  -0.01658  -0.01606   2.89976
    R8        2.08205   0.00204   0.00557   0.00267   0.00824   2.09029
    R9        2.08204   0.00204   0.00557   0.00267   0.00824   2.09029
   R10        2.92059  -0.00615   0.00097  -0.02407  -0.02310   2.89749
   R11        2.07964   0.00161   0.00535   0.00154   0.00689   2.08652
   R12        2.08011   0.00060   0.00539  -0.00145   0.00394   2.08405
   R13        2.07964   0.00161   0.00535   0.00154   0.00689   2.08652
    A1        1.88818  -0.00157  -0.00208  -0.00844  -0.01061   1.87757
    A2        1.88765  -0.00085  -0.00213  -0.00506  -0.00722   1.88043
    A3        1.92674   0.00164   0.00149   0.01055   0.01198   1.93872
    A4        1.88765  -0.00085  -0.00213  -0.00505  -0.00721   1.88044
    A5        1.92677   0.00164   0.00150   0.01054   0.01197   1.93874
    A6        1.94522  -0.00014   0.00321  -0.00334  -0.00017   1.94506
    A7        1.90731   0.00025  -0.00031   0.00373   0.00335   1.91067
    A8        1.90734   0.00025  -0.00031   0.00373   0.00335   1.91070
    A9        1.96743  -0.00022   0.00527   0.00165   0.00681   1.97424
   A10        1.88149  -0.00123  -0.00270  -0.02401  -0.02672   1.85477
   A11        1.89915   0.00045  -0.00107   0.00680   0.00565   1.90480
   A12        1.89919   0.00045  -0.00106   0.00679   0.00564   1.90483
   A13        1.89918   0.00045  -0.00106   0.00679   0.00564   1.90483
   A14        1.89916   0.00045  -0.00106   0.00680   0.00565   1.90481
   A15        1.96743  -0.00022   0.00527   0.00165   0.00681   1.97424
   A16        1.88149  -0.00123  -0.00270  -0.02401  -0.02672   1.85477
   A17        1.90733   0.00025  -0.00031   0.00373   0.00335   1.91068
   A18        1.90733   0.00025  -0.00031   0.00373   0.00335   1.91068
   A19        1.92675   0.00164   0.00150   0.01055   0.01198   1.93873
   A20        1.94522  -0.00014   0.00321  -0.00334  -0.00017   1.94506
   A21        1.92676   0.00164   0.00150   0.01054   0.01197   1.93873
   A22        1.88765  -0.00085  -0.00213  -0.00505  -0.00722   1.88043
   A23        1.88818  -0.00157  -0.00208  -0.00844  -0.01061   1.87757
   A24        1.88765  -0.00085  -0.00213  -0.00505  -0.00722   1.88043
    D1       -3.12736   0.00067   0.00150   0.01528   0.01681  -3.11055
    D2       -1.07234  -0.00053  -0.00215  -0.00939  -0.01154  -1.08388
    D3        1.04178   0.00007  -0.00032   0.00293   0.00262   1.04440
    D4        1.06897   0.00054   0.00220   0.01230   0.01450   1.08347
    D5        3.12399  -0.00066  -0.00145  -0.01237  -0.01385   3.11014
    D6       -1.04508  -0.00006   0.00038  -0.00005   0.00032  -1.04476
    D7       -1.02920   0.00060   0.00185   0.01378   0.01565  -1.01355
    D8        1.02582  -0.00059  -0.00180  -0.01089  -0.01270   1.01312
    D9        3.13994   0.00000   0.00003   0.00144   0.00146   3.14140
   D10        1.02249  -0.00049  -0.00226  -0.01037  -0.01264   1.00985
   D11       -1.02325   0.00049   0.00226   0.01073   0.01300  -1.01026
   D12        3.14122   0.00000   0.00000   0.00018   0.00018   3.14140
   D13       -1.09620  -0.00097  -0.00451  -0.02093  -0.02546  -1.12167
   D14        3.14124   0.00000   0.00000   0.00017   0.00017   3.14142
   D15        1.02253  -0.00049  -0.00225  -0.01038  -0.01265   1.00988
   D16        3.14124   0.00000   0.00000   0.00017   0.00017   3.14142
   D17        1.09550   0.00097   0.00452   0.02128   0.02581   1.12131
   D18       -1.02321   0.00049   0.00226   0.01072   0.01299  -1.01022
   D19        1.04334   0.00007  -0.00035   0.00151   0.00117   1.04451
   D20        3.14150   0.00000   0.00000   0.00002   0.00002   3.14152
   D21       -1.04352  -0.00007   0.00035  -0.00147  -0.00114  -1.04466
   D22       -3.12575   0.00066   0.00148   0.01384   0.01535  -3.11041
   D23       -1.02759   0.00060   0.00183   0.01235   0.01419  -1.01340
   D24        1.07058   0.00053   0.00218   0.01086   0.01304   1.08361
   D25       -1.07073  -0.00053  -0.00218  -0.01083  -0.01301  -1.08374
   D26        1.02743  -0.00060  -0.00183  -0.01232  -0.01416   1.01327
   D27        3.12560  -0.00066  -0.00148  -0.01381  -0.01531   3.11029
         Item               Value     Threshold  Converged?
 Maximum Force            0.006152     0.000450     NO 
 RMS     Force            0.001538     0.000300     NO 
 Maximum Displacement     0.014650     0.001800     NO 
 RMS     Displacement     0.007548     0.001200     NO 
 Predicted change in Energy=-4.179327D-04
 GradGradGradGradGradGradGradGradGradGradGradGradGradGradGradGradGradGrad

                          Input orientation:                          
 ---------------------------------------------------------------------
 Center     Atomic      Atomic             Coordinates (Angstroms)
 Number     Number       Type             X           Y           Z
 ---------------------------------------------------------------------
      1          6           0       -1.782853    0.100935   -0.013586
      2          1           0       -1.439987   -0.948082   -0.047314
      3          1           0       -1.437522    0.594516   -0.938922
      4          1           0       -2.885581    0.094665   -0.027478
      5          6           0       -1.241989    0.818226    1.228960
      6          1           0       -1.626752    1.855006    1.252963
      7          1           0       -1.629543    0.322691    2.138782
      8          6           0        0.291083    0.849116    1.287183
      9          1           0        0.678642    1.344489    0.377272
     10          1           0        0.675841   -0.187668    1.263365
     11          6           0        0.831947    1.566648    2.529589
     12          1           0        0.486388    1.073394    3.455017
     13          1           0        1.934674    1.572674    2.543623
     14          1           0        0.489311    2.615748    2.562990
 ---------------------------------------------------------------------
                    Distance matrix (angstroms):
                    1          2          3          4          5
     1  C    0.000000
     2  H    1.104142   0.000000
     3  H    1.104139   1.781734   0.000000
     4  H    1.102833   1.782541   1.782542   0.000000
     5  C    1.533284   2.188132   2.188148   2.191705   0.000000
     6  H    2.169165   3.095626   2.535548   2.514553   1.106134
     7  H    2.169186   2.535707   3.095646   2.514420   1.106133
     8  C    2.559879   2.829736   2.829919   3.519761   1.534488
     9  H    2.785346   3.150356   2.602495   3.798627   2.165906
    10  H    2.785510   2.602467   3.150902   3.798645   2.165889
    11  C    3.931059   4.257462   4.257476   4.746086   2.559879
    12  H    4.257503   4.479242   4.820525   4.945286   2.829793
    13  H    4.746086   4.945251   4.945364   5.659499   3.519761
    14  H    4.257435   4.820452   4.479001   4.945328   2.829862
                    6          7          8          9         10
     6  H    0.000000
     7  H    1.769936   0.000000
     8  C    2.165889   2.165906   0.000000
     9  H    2.518394   3.078102   1.106135   0.000000
    10  H    3.078077   2.518256   1.106132   1.769936   0.000000
    11  C    2.785341   2.785515   1.533283   2.169176   2.169175
    12  H    3.150448   2.602536   2.188138   3.095637   2.535648
    13  H    3.798588   3.798684   2.191705   2.514510   2.514464
    14  H    2.602426   3.150810   2.188141   2.535607   3.095636
                   11         12         13         14
    11  C    0.000000
    12  H    1.104141   0.000000
    13  H    1.102833   1.782542   0.000000
    14  H    1.104140   1.781734   1.782541   0.000000
 Stoichiometry    C4H10
 Framework group  C1[X(C4H10)]
 Deg. of freedom    36
 Full point group                 C1      NOp   1
 Largest Abelian subgroup         C1      NOp   1
 Largest concise Abelian subgroup C1      NOp   1
                         Standard orientation:                         
 ---------------------------------------------------------------------
 Center     Atomic      Atomic             Coordinates (Angstroms)
 Number     Number       Type             X           Y           Z
 ---------------------------------------------------------------------
      1          6           0       -1.961796    0.121099    0.000065
      2          1           0       -2.107781    0.757047   -0.890658
      3          1           0       -2.107823    0.756630    0.891076
      4          1           0       -2.755311   -0.644783   -0.000135
      5          6           0       -0.567364   -0.516489   -0.000073
      6          1           0       -0.461360   -1.171615    0.884860
      7          1           0       -0.461467   -1.171536   -0.885076
      8          6           0        0.567364    0.516489   -0.000074
      9          1           0        0.461360    1.171651    0.884832
     10          1           0        0.461467    1.171499   -0.885104
     11          6           0        1.961796   -0.121099    0.000066
     12          1           0        2.107831   -0.756964   -0.890708
     13          1           0        2.755311    0.644783   -0.000016
     14          1           0        2.107772   -0.756714    0.891026
 ---------------------------------------------------------------------
 Rotational constants (GHZ):          23.1956985           3.5963824           3.3782319
 Standard basis: CC-pVDZ (5D, 7F)
 There are   110 symmetry adapted cartesian basis functions of A   symmetry.
 There are   106 symmetry adapted basis functions of A   symmetry.
   106 basis functions,   202 primitive gaussians,   110 cartesian basis functions
    17 alpha electrons       17 beta electrons
       nuclear repulsion energy       129.8523774101 Hartrees.
 NAtoms=   14 NActive=   14 NUniq=   14 SFac= 1.00D+00 NAtFMM=   60 NAOKFM=F Big=F
 Integral buffers will be    131072 words long.
 Raffenetti 2 integral format.
 Two-electron integral symmetry is turned on.
 One-electron integrals computed using PRISM.
 NBasis=   106 RedAO= T EigKep=  3.87D-03  NBF=   106
 NBsUse=   106 1.00D-06 EigRej= -1.00D+00 NBFU=   106
 Initial guess from the checkpoint file:  "C4H10-opt.chk"
 B after Tr=     0.000000    0.000000    0.000000
         Rot=    1.000000    0.000113   -0.000010   -0.000117 Ang=   0.02 deg.
 Requested convergence on RMS density matrix=1.00D-08 within 128 cycles.
 Requested convergence on MAX density matrix=1.00D-06.
 Requested convergence on             energy=1.00D-06.
 No special actions if energy rises.
 SCF Done:  E(RB3LYP) =  -158.458741600     A.U. after    8 cycles
            NFock=  8  Conv=0.20D-08     -V/T= 2.0095
 Calling FoFJK, ICntrl=      2127 FMM=F ISym2X=0 I1Cent= 0 IOpClX= 0 NMat=1 NMatS=1 NMatT=0.
 ***** Axes restored to original set *****
 -------------------------------------------------------------------
 Center     Atomic                   Forces (Hartrees/Bohr)
 Number     Number              X              Y              Z
 -------------------------------------------------------------------
      1        6           0.000107867    0.000825339    0.001438597
      2        1          -0.000271499    0.000409004   -0.000331744
      3        1          -0.000270548   -0.000489825    0.000188696
      4        1           0.000512674   -0.000177886   -0.000307908
      5        6           0.000939020   -0.001170938   -0.002035921
      6        1          -0.000091349   -0.000246854    0.000437708
      7        1          -0.000087995    0.000501212    0.000003725
      8        6          -0.000939016    0.001176233    0.002032799
      9        1           0.000087943   -0.000501809   -0.000003255
     10        1           0.000091386    0.000246162   -0.000437439
     11        6          -0.000107871   -0.000831092   -0.001435230
     12        1           0.000272188    0.000490370   -0.000188644
     13        1          -0.000512675    0.000178858    0.000307356
     14        1           0.000269875   -0.000408774    0.000331260
 -------------------------------------------------------------------
 Cartesian Forces:  Max     0.002035921 RMS     0.000716105

 GradGradGradGradGradGradGradGradGradGradGradGradGradGradGradGradGradGrad
 Berny optimization.
 Using GEDIIS/GDIIS optimizer.
 FormGI is forming the generalized inverse of G from B-inverse, IUseBI=4.
 Internal  Forces:  Max     0.001093616 RMS     0.000345580
 Search for a local minimum.
 Step number   3 out of a maximum of   74
 All quantities printed in internal units (Hartrees-Bohrs-Radians)
 Mixed Optimization -- En-DIIS/RFO-DIIS
 Update second derivatives using D2CorX and points    1    2    3
 DE= -5.01D-04 DEPred=-4.18D-04 R= 1.20D+00
 TightC=F SS=  1.41D+00  RLast= 9.45D-02 DXNew= 8.4853D-01 2.8361D-01
 Trust test= 1.20D+00 RLast= 9.45D-02 DXMaxT set to 5.05D-01
 ITU=  1  1  0
 Use linear search instead of GDIIS.
     Eigenvalues ---    0.00237   0.00237   0.00237   0.03376   0.03376
     Eigenvalues ---    0.03930   0.04724   0.05374   0.05374   0.05424
     Eigenvalues ---    0.05445   0.08361   0.08387   0.12238   0.12238
     Eigenvalues ---    0.14323   0.16000   0.16000   0.16000   0.16000
     Eigenvalues ---    0.16231   0.21906   0.21927   0.28197   0.28519
     Eigenvalues ---    0.28538   0.37070   0.37230   0.37230   0.37230
     Eigenvalues ---    0.37230   0.37230   0.37230   0.37230   0.37276
     Eigenvalues ---    0.40733
 RFO step:  Lambda=-3.09567079D-05 EMin= 2.36823425D-03
 Quartic linear search produced a step of  0.19194.
 Iteration  1 RMS(Cart)=  0.00252205 RMS(Int)=  0.00001283
 Iteration  2 RMS(Cart)=  0.00001566 RMS(Int)=  0.00000974
 Iteration  3 RMS(Cart)=  0.00000000 RMS(Int)=  0.00000974
 Variable       Old X    -DE/DX   Delta X   Delta X   Delta X     New X
                                 (Linear)    (Quad)   (Total)
    R1        2.08653  -0.00046   0.00132  -0.00202  -0.00070   2.08582
    R2        2.08652  -0.00046   0.00132  -0.00202  -0.00070   2.08582
    R3        2.08405  -0.00051   0.00076  -0.00171  -0.00095   2.08310
    R4        2.89749  -0.00109  -0.00443  -0.00090  -0.00533   2.89215
    R5        2.09029  -0.00019   0.00158  -0.00135   0.00024   2.09053
    R6        2.09029  -0.00019   0.00158  -0.00135   0.00024   2.09052
    R7        2.89976  -0.00081  -0.00308  -0.00083  -0.00391   2.89585
    R8        2.09029  -0.00019   0.00158  -0.00135   0.00023   2.09053
    R9        2.09029  -0.00019   0.00158  -0.00134   0.00024   2.09053
   R10        2.89749  -0.00109  -0.00443  -0.00090  -0.00533   2.89215
   R11        2.08652  -0.00046   0.00132  -0.00202  -0.00070   2.08582
   R12        2.08405  -0.00051   0.00076  -0.00171  -0.00095   2.08310
   R13        2.08652  -0.00046   0.00132  -0.00202  -0.00070   2.08582
    A1        1.87757  -0.00041  -0.00204  -0.00217  -0.00423   1.87335
    A2        1.88043  -0.00036  -0.00139  -0.00150  -0.00289   1.87754
    A3        1.93872   0.00035   0.00230   0.00075   0.00304   1.94175
    A4        1.88044  -0.00036  -0.00138  -0.00150  -0.00289   1.87754
    A5        1.93874   0.00035   0.00230   0.00072   0.00300   1.94174
    A6        1.94506   0.00037  -0.00003   0.00340   0.00336   1.94841
    A7        1.91067  -0.00006   0.00064   0.00044   0.00106   1.91173
    A8        1.91070  -0.00006   0.00064   0.00040   0.00102   1.91172
    A9        1.97424   0.00056   0.00131   0.00419   0.00547   1.97971
   A10        1.85477  -0.00017  -0.00513  -0.00280  -0.00793   1.84685
   A11        1.90480  -0.00016   0.00109  -0.00132  -0.00025   1.90455
   A12        1.90483  -0.00016   0.00108  -0.00135  -0.00029   1.90454
   A13        1.90483  -0.00016   0.00108  -0.00135  -0.00028   1.90454
   A14        1.90481  -0.00016   0.00108  -0.00132  -0.00026   1.90455
   A15        1.97424   0.00056   0.00131   0.00419   0.00547   1.97971
   A16        1.85477  -0.00017  -0.00513  -0.00280  -0.00793   1.84685
   A17        1.91068  -0.00006   0.00064   0.00042   0.00104   1.91173
   A18        1.91068  -0.00006   0.00064   0.00041   0.00104   1.91172
   A19        1.93873   0.00035   0.00230   0.00074   0.00302   1.94175
   A20        1.94506   0.00037  -0.00003   0.00340   0.00336   1.94841
   A21        1.93873   0.00035   0.00230   0.00073   0.00302   1.94175
   A22        1.88043  -0.00036  -0.00139  -0.00150  -0.00289   1.87754
   A23        1.87757  -0.00041  -0.00204  -0.00217  -0.00423   1.87335
   A24        1.88043  -0.00036  -0.00138  -0.00150  -0.00289   1.87754
    D1       -3.11055   0.00011   0.00323   0.00039   0.00362  -3.10693
    D2       -1.08388  -0.00016  -0.00222  -0.00252  -0.00473  -1.08861
    D3        1.04440  -0.00003   0.00050  -0.00110  -0.00059   1.04381
    D4        1.08347   0.00017   0.00278   0.00215   0.00493   1.08840
    D5        3.11014  -0.00011  -0.00266  -0.00075  -0.00342   3.10672
    D6       -1.04476   0.00003   0.00006   0.00066   0.00072  -1.04404
    D7       -1.01355   0.00014   0.00300   0.00128   0.00429  -1.00927
    D8        1.01312  -0.00014  -0.00244  -0.00162  -0.00406   1.00905
    D9        3.14140   0.00000   0.00028  -0.00020   0.00008   3.14148
   D10        1.00985  -0.00019  -0.00243  -0.00221  -0.00464   1.00521
   D11       -1.01026   0.00019   0.00249   0.00261   0.00511  -1.00515
   D12        3.14140   0.00000   0.00003   0.00019   0.00023  -3.14156
   D13       -1.12167  -0.00038  -0.00489  -0.00466  -0.00955  -1.13122
   D14        3.14142   0.00000   0.00003   0.00016   0.00020  -3.14157
   D15        1.00988  -0.00019  -0.00243  -0.00226  -0.00469   1.00520
   D16        3.14142   0.00000   0.00003   0.00016   0.00020  -3.14157
   D17        1.12131   0.00038   0.00495   0.00498   0.00994   1.13126
   D18       -1.01022   0.00019   0.00249   0.00257   0.00506  -1.00516
   D19        1.04451  -0.00003   0.00023  -0.00082  -0.00060   1.04391
   D20        3.14152   0.00000   0.00000   0.00006   0.00006   3.14158
   D21       -1.04466   0.00003  -0.00022   0.00094   0.00072  -1.04394
   D22       -3.11041   0.00011   0.00295   0.00061   0.00357  -3.10684
   D23       -1.01340   0.00014   0.00272   0.00150   0.00422  -1.00917
   D24        1.08361   0.00016   0.00250   0.00238   0.00488   1.08849
   D25       -1.08374  -0.00017  -0.00250  -0.00229  -0.00479  -1.08852
   D26        1.01327  -0.00014  -0.00272  -0.00141  -0.00413   1.00915
   D27        3.11029  -0.00011  -0.00294  -0.00052  -0.00347   3.10681
         Item               Value     Threshold  Converged?
 Maximum Force            0.001094     0.000450     NO 
 RMS     Force            0.000346     0.000300     NO 
 Maximum Displacement     0.006167     0.001800     NO 
 RMS     Displacement     0.002516     0.001200     NO 
 Predicted change in Energy=-2.935520D-05
 GradGradGradGradGradGradGradGradGradGradGradGradGradGradGradGradGradGrad

                          Input orientation:                          
 ---------------------------------------------------------------------
 Center     Atomic      Atomic             Coordinates (Angstroms)
 Number     Number       Type             X           Y           Z
 ---------------------------------------------------------------------
      1          6           0       -1.783100    0.101221   -0.012950
      2          1           0       -1.442473   -0.948014   -0.050222
      3          1           0       -1.439866    0.591562   -0.940346
      4          1           0       -2.885296    0.094106   -0.028480
      5          6           0       -1.240824    0.816878    1.226439
      6          1           0       -1.627611    1.852946    1.254186
      7          1           0       -1.630376    0.325101    2.137598
      8          6           0        0.289918    0.850624    1.289612
      9          1           0        0.679472    1.342417    0.378462
     10          1           0        0.676703   -0.185444    1.261846
     11          6           0        0.832194    1.566244    2.529022
     12          1           0        0.488857    1.075956    3.456408
     13          1           0        1.934390    1.573245    2.544617
     14          1           0        0.491671    2.615513    2.566253
 ---------------------------------------------------------------------
                    Distance matrix (angstroms):
                    1          2          3          4          5
     1  C    0.000000
     2  H    1.103771   0.000000
     3  H    1.103769   1.778376   0.000000
     4  H    1.102328   1.779951   1.779952   0.000000
     5  C    1.530461   2.187548   2.187542   2.191234   0.000000
     6  H    2.167567   3.095340   2.538170   2.514064   1.106260
     7  H    2.167557   2.538244   3.095325   2.513976   1.106258
     8  C    2.560406   2.833978   2.834075   3.520180   1.532417
     9  H    2.785324   3.151586   2.606651   3.798875   2.163976
    10  H    2.785303   2.606519   3.151706   3.798805   2.163981
    11  C    3.930353   4.260059   4.260138   4.746339   2.560406
    12  H    4.260087   4.485860   4.825562   4.949078   2.834022
    13  H    4.746339   4.949054   4.949169   5.660216   3.520180
    14  H    4.260110   4.825513   4.485917   4.949145   2.834031
                    6          7          8          9         10
     6  H    0.000000
     7  H    1.764861   0.000000
     8  C    2.163983   2.163974   0.000000
     9  H    2.519953   3.076506   1.106258   0.000000
    10  H    3.076516   2.519962   1.106259   1.764861   0.000000
    11  C    2.785327   2.785301   1.530461   2.167563   2.167561
    12  H    3.151655   2.606566   2.187546   3.095333   2.538212
    13  H    3.798854   3.798826   2.191234   2.514027   2.514014
    14  H    2.606604   3.151637   2.187545   2.538203   3.095331
                   11         12         13         14
    11  C    0.000000
    12  H    1.103770   0.000000
    13  H    1.102328   1.779951   0.000000
    14  H    1.103770   1.778376   1.779952   0.000000
 Stoichiometry    C4H10
 Framework group  C1[X(C4H10)]
 Deg. of freedom    36
 Full point group                 C1      NOp   1
 Largest Abelian subgroup         C1      NOp   1
 Largest concise Abelian subgroup C1      NOp   1
                         Standard orientation:                         
 ---------------------------------------------------------------------
 Center     Atomic      Atomic             Coordinates (Angstroms)
 Number     Number       Type             X           Y           Z
 ---------------------------------------------------------------------
      1          6           0       -1.961498    0.120188   -0.000009
      2          1           0       -2.111391    0.756805   -0.889144
      3          1           0       -2.111488    0.756631    0.889232
      4          1           0       -2.755836   -0.644112   -0.000129
      5          6           0       -0.568486   -0.513712    0.000011
      6          1           0       -0.461800   -1.172304    0.882442
      7          1           0       -0.461788   -1.172300   -0.882419
      8          6           0        0.568486    0.513712    0.000012
      9          1           0        0.461800    1.172290    0.882452
     10          1           0        0.461787    1.172314   -0.882409
     11          6           0        1.961498   -0.120188   -0.000010
     12          1           0        2.111427   -0.756717   -0.889201
     13          1           0        2.755836    0.644112   -0.000021
     14          1           0        2.111452   -0.756719    0.889175
 ---------------------------------------------------------------------
 Rotational constants (GHZ):          23.3024282           3.5953170           3.3781842
 Standard basis: CC-pVDZ (5D, 7F)
 There are   110 symmetry adapted cartesian basis functions of A   symmetry.
 There are   106 symmetry adapted basis functions of A   symmetry.
   106 basis functions,   202 primitive gaussians,   110 cartesian basis functions
    17 alpha electrons       17 beta electrons
       nuclear repulsion energy       129.9225487766 Hartrees.
 NAtoms=   14 NActive=   14 NUniq=   14 SFac= 1.00D+00 NAtFMM=   60 NAOKFM=F Big=F
 Integral buffers will be    131072 words long.
 Raffenetti 2 integral format.
 Two-electron integral symmetry is turned on.
 One-electron integrals computed using PRISM.
 NBasis=   106 RedAO= T EigKep=  3.85D-03  NBF=   106
 NBsUse=   106 1.00D-06 EigRej= -1.00D+00 NBFU=   106
 Initial guess from the checkpoint file:  "C4H10-opt.chk"
 B after Tr=     0.000000    0.000000    0.000000
         Rot=    1.000000   -0.000005    0.000000   -0.000012 Ang=   0.00 deg.
 Requested convergence on RMS density matrix=1.00D-08 within 128 cycles.
 Requested convergence on MAX density matrix=1.00D-06.
 Requested convergence on             energy=1.00D-06.
 No special actions if energy rises.
 SCF Done:  E(RB3LYP) =  -158.458770504     A.U. after    7 cycles
            NFock=  7  Conv=0.20D-08     -V/T= 2.0094
 Calling FoFJK, ICntrl=      2127 FMM=F ISym2X=0 I1Cent= 0 IOpClX= 0 NMat=1 NMatS=1 NMatT=0.
 ***** Axes restored to original set *****
 -------------------------------------------------------------------
 Center     Atomic                   Forces (Hartrees/Bohr)
 Number     Number              X              Y              Z
 -------------------------------------------------------------------
      1        6           0.000061763   -0.000010578   -0.000019443
      2        1          -0.000036791    0.000099149   -0.000009279
      3        1          -0.000036625   -0.000058000    0.000079698
      4        1           0.000165648    0.000022997    0.000038961
      5        6          -0.000208436    0.000055000    0.000098043
      6        1           0.000024028   -0.000073241   -0.000005285
      7        1           0.000023920    0.000031433   -0.000064367
      8        6           0.000208437   -0.000055760   -0.000097588
      9        1          -0.000023539   -0.000031656    0.000065146
     10        1          -0.000024406    0.000072459    0.000005096
     11        6          -0.000061766    0.000011315    0.000019006
     12        1           0.000036821    0.000057661   -0.000080646
     13        1          -0.000165645   -0.000022281   -0.000039378
     14        1           0.000036593   -0.000098497    0.000010037
 -------------------------------------------------------------------
 Cartesian Forces:  Max     0.000208437 RMS     0.000076802

 GradGradGradGradGradGradGradGradGradGradGradGradGradGradGradGradGradGrad
 Berny optimization.
 Using GEDIIS/GDIIS optimizer.
 FormGI is forming the generalized inverse of G from B-inverse, IUseBI=4.
 Internal  Forces:  Max     0.000166053 RMS     0.000060839
 Search for a local minimum.
 Step number   4 out of a maximum of   74
 All quantities printed in internal units (Hartrees-Bohrs-Radians)
 Mixed Optimization -- En-DIIS/RFO-DIIS
 Swapping is turned off.
 Update second derivatives using D2CorX and points    1    2    3    4
 DE= -2.89D-05 DEPred=-2.94D-05 R= 9.85D-01
 TightC=F SS=  1.41D+00  RLast= 2.99D-02 DXNew= 8.4853D-01 8.9733D-02
 Trust test= 9.85D-01 RLast= 2.99D-02 DXMaxT set to 5.05D-01
 ITU=  1  1  1  0
     Eigenvalues ---    0.00237   0.00237   0.00237   0.03331   0.03331
     Eigenvalues ---    0.04103   0.04705   0.05338   0.05338   0.05395
     Eigenvalues ---    0.05428   0.08430   0.08462   0.12288   0.12288
     Eigenvalues ---    0.14203   0.16000   0.16000   0.16000   0.16000
     Eigenvalues ---    0.16359   0.21895   0.22599   0.28155   0.28519
     Eigenvalues ---    0.28560   0.36727   0.37179   0.37230   0.37230
     Eigenvalues ---    0.37230   0.37230   0.37230   0.37230   0.37230
     Eigenvalues ---    0.37402
 En-DIIS/RFO-DIIS/Sim-DIIS IScMMF=       -3 using points:     4    3
 RFO step:  Lambda=-7.63564363D-07.
 DidBck=F Rises=F RFO-DIIS coefs:    0.97900    0.02100
 Iteration  1 RMS(Cart)=  0.00041215 RMS(Int)=  0.00000010
 Iteration  2 RMS(Cart)=  0.00000007 RMS(Int)=  0.00000009
 Variable       Old X    -DE/DX   Delta X   Delta X   Delta X     New X
                                 (Linear)    (Quad)   (Total)
    R1        2.08582  -0.00011   0.00001  -0.00030  -0.00028   2.08554
    R2        2.08582  -0.00010   0.00001  -0.00029  -0.00028   2.08554
    R3        2.08310  -0.00017   0.00002  -0.00045  -0.00043   2.08267
    R4        2.89215  -0.00015   0.00011  -0.00054  -0.00043   2.89173
    R5        2.09053  -0.00008   0.00000  -0.00020  -0.00020   2.09032
    R6        2.09052  -0.00008   0.00000  -0.00019  -0.00020   2.09033
    R7        2.89585   0.00000   0.00008  -0.00001   0.00007   2.89592
    R8        2.09053  -0.00008   0.00000  -0.00019  -0.00020   2.09033
    R9        2.09053  -0.00008  -0.00001  -0.00020  -0.00020   2.09033
   R10        2.89215  -0.00015   0.00011  -0.00054  -0.00043   2.89173
   R11        2.08582  -0.00011   0.00001  -0.00030  -0.00028   2.08554
   R12        2.08310  -0.00017   0.00002  -0.00045  -0.00043   2.08267
   R13        2.08582  -0.00010   0.00001  -0.00029  -0.00028   2.08554
    A1        1.87335  -0.00002   0.00009  -0.00010  -0.00002   1.87333
    A2        1.87754   0.00002   0.00006  -0.00002   0.00004   1.87758
    A3        1.94175   0.00003  -0.00006   0.00023   0.00017   1.94192
    A4        1.87754   0.00002   0.00006  -0.00002   0.00004   1.87758
    A5        1.94174   0.00003  -0.00006   0.00025   0.00018   1.94193
    A6        1.94841  -0.00007  -0.00007  -0.00034  -0.00041   1.94800
    A7        1.91173   0.00004  -0.00002   0.00013   0.00011   1.91184
    A8        1.91172   0.00004  -0.00002   0.00015   0.00013   1.91184
    A9        1.97971  -0.00013  -0.00011  -0.00045  -0.00057   1.97915
   A10        1.84685  -0.00002   0.00017  -0.00005   0.00011   1.84696
   A11        1.90455   0.00004   0.00001   0.00012   0.00012   1.90468
   A12        1.90454   0.00004   0.00001   0.00013   0.00014   1.90468
   A13        1.90454   0.00004   0.00001   0.00013   0.00014   1.90468
   A14        1.90455   0.00004   0.00001   0.00012   0.00013   1.90468
   A15        1.97971  -0.00013  -0.00011  -0.00045  -0.00057   1.97915
   A16        1.84685  -0.00002   0.00017  -0.00005   0.00011   1.84696
   A17        1.91173   0.00004  -0.00002   0.00014   0.00011   1.91184
   A18        1.91172   0.00004  -0.00002   0.00014   0.00012   1.91184
   A19        1.94175   0.00003  -0.00006   0.00024   0.00018   1.94192
   A20        1.94841  -0.00007  -0.00007  -0.00034  -0.00041   1.94800
   A21        1.94175   0.00003  -0.00006   0.00024   0.00018   1.94192
   A22        1.87754   0.00002   0.00006  -0.00002   0.00004   1.87758
   A23        1.87335  -0.00002   0.00009  -0.00010  -0.00002   1.87333
   A24        1.87754   0.00002   0.00006  -0.00002   0.00004   1.87758
    D1       -3.10693   0.00000  -0.00008   0.00017   0.00009  -3.10684
    D2       -1.08861   0.00002   0.00010   0.00026   0.00036  -1.08825
    D3        1.04381   0.00001   0.00001   0.00023   0.00024   1.04405
    D4        1.08840  -0.00002  -0.00010  -0.00002  -0.00012   1.08828
    D5        3.10672   0.00000   0.00007   0.00007   0.00015   3.10687
    D6       -1.04404  -0.00001  -0.00002   0.00004   0.00003  -1.04402
    D7       -1.00927  -0.00001  -0.00009   0.00007  -0.00002  -1.00928
    D8        1.00905   0.00001   0.00009   0.00017   0.00025   1.00931
    D9        3.14148   0.00000   0.00000   0.00013   0.00013  -3.14158
   D10        1.00521   0.00001   0.00010  -0.00001   0.00009   1.00529
   D11       -1.00515  -0.00001  -0.00011  -0.00009  -0.00019  -1.00534
   D12       -3.14156   0.00000   0.00000  -0.00005  -0.00005   3.14157
   D13       -1.13122   0.00002   0.00020   0.00004   0.00024  -1.13097
   D14       -3.14157   0.00000   0.00000  -0.00003  -0.00004   3.14157
   D15        1.00520   0.00001   0.00010   0.00001   0.00010   1.00530
   D16       -3.14157   0.00000   0.00000  -0.00003  -0.00004   3.14157
   D17        1.13126  -0.00002  -0.00021  -0.00011  -0.00032   1.13094
   D18       -1.00516  -0.00001  -0.00011  -0.00007  -0.00018  -1.00534
   D19        1.04391   0.00001   0.00001   0.00011   0.00012   1.04403
   D20        3.14158   0.00000   0.00000   0.00001   0.00001  -3.14159
   D21       -1.04394  -0.00001  -0.00002  -0.00008  -0.00010  -1.04403
   D22       -3.10684   0.00000  -0.00007   0.00006  -0.00001  -3.10685
   D23       -1.00917  -0.00001  -0.00009  -0.00003  -0.00012  -1.00929
   D24        1.08849  -0.00002  -0.00010  -0.00012  -0.00023   1.08827
   D25       -1.08852   0.00002   0.00010   0.00016   0.00026  -1.08826
   D26        1.00915   0.00001   0.00009   0.00006   0.00015   1.00930
   D27        3.10681   0.00000   0.00007  -0.00003   0.00004   3.10686
         Item               Value     Threshold  Converged?
 Maximum Force            0.000166     0.000450     YES
 RMS     Force            0.000061     0.000300     YES
 Maximum Displacement     0.001199     0.001800     YES
 RMS     Displacement     0.000412     0.001200     YES
 Predicted change in Energy=-3.817855D-07
 Optimization completed.
    -- Stationary point found.
                           ----------------------------
                           !   Optimized Parameters   !
                           ! (Angstroms and Degrees)  !
 --------------------------                            --------------------------
 ! Name  Definition              Value          Derivative Info.                !
 --------------------------------------------------------------------------------
 ! R1    R(1,2)                  1.1038         -DE/DX =   -0.0001              !
 ! R2    R(1,3)                  1.1038         -DE/DX =   -0.0001              !
 ! R3    R(1,4)                  1.1023         -DE/DX =   -0.0002              !
 ! R4    R(1,5)                  1.5305         -DE/DX =   -0.0002              !
 ! R5    R(5,6)                  1.1063         -DE/DX =   -0.0001              !
 ! R6    R(5,7)                  1.1063         -DE/DX =   -0.0001              !
 ! R7    R(5,8)                  1.5324         -DE/DX =    0.0                 !
 ! R8    R(8,9)                  1.1063         -DE/DX =   -0.0001              !
 ! R9    R(8,10)                 1.1063         -DE/DX =   -0.0001              !
 ! R10   R(8,11)                 1.5305         -DE/DX =   -0.0002              !
 ! R11   R(11,12)                1.1038         -DE/DX =   -0.0001              !
 ! R12   R(11,13)                1.1023         -DE/DX =   -0.0002              !
 ! R13   R(11,14)                1.1038         -DE/DX =   -0.0001              !
 ! A1    A(2,1,3)              107.3349         -DE/DX =    0.0                 !
 ! A2    A(2,1,4)              107.575          -DE/DX =    0.0                 !
 ! A3    A(2,1,5)              111.2541         -DE/DX =    0.0                 !
 ! A4    A(3,1,4)              107.5753         -DE/DX =    0.0                 !
 ! A5    A(3,1,5)              111.2538         -DE/DX =    0.0                 !
 ! A6    A(4,1,5)              111.6358         -DE/DX =   -0.0001              !
 ! A7    A(1,5,6)              109.5341         -DE/DX =    0.0                 !
 ! A8    A(1,5,7)              109.5334         -DE/DX =    0.0                 !
 ! A9    A(1,5,8)              113.4292         -DE/DX =   -0.0001              !
 ! A10   A(6,5,7)              105.8166         -DE/DX =    0.0                 !
 ! A11   A(6,5,8)              109.1228         -DE/DX =    0.0                 !
 ! A12   A(7,5,8)              109.1222         -DE/DX =    0.0                 !
 ! A13   A(5,8,9)              109.1224         -DE/DX =    0.0                 !
 ! A14   A(5,8,10)             109.1227         -DE/DX =    0.0                 !
 ! A15   A(5,8,11)             113.4292         -DE/DX =   -0.0001              !
 ! A16   A(9,8,10)             105.8166         -DE/DX =    0.0                 !
 ! A17   A(9,8,11)             109.5338         -DE/DX =    0.0                 !
[...]
 ! A24   A(13,11,14)           107.5752         -DE/DX =    0.0                 !
 ! D1    D(2,1,5,6)           -178.0142         -DE/DX =    0.0                 !
 ! D2    D(2,1,5,7)            -62.373          -DE/DX =    0.0                 !
 ! D3    D(2,1,5,8)             59.8058         -DE/DX =    0.0                 !
 ! D4    D(3,1,5,6)             62.3608         -DE/DX =    0.0                 !
 ! D5    D(3,1,5,7)            178.002          -DE/DX =    0.0                 !
 ! D6    D(3,1,5,8)            -59.8192         -DE/DX =    0.0                 !
 ! D7    D(4,1,5,6)            -57.8267         -DE/DX =    0.0                 !
 ! D8    D(4,1,5,7)             57.8145         -DE/DX =    0.0                 !
 ! D9    D(4,1,5,8)           -180.0067         -DE/DX =    0.0                 !
 ! D10   D(1,5,8,9)             57.5941         -DE/DX =    0.0                 !
 ! D11   D(1,5,8,10)           -57.5907         -DE/DX =    0.0                 !
 ! D12   D(1,5,8,11)           180.0017         -DE/DX =    0.0                 !
 ! D13   D(6,5,8,9)            -64.8141         -DE/DX =    0.0                 !
 ! D14   D(6,5,8,10)           180.0011         -DE/DX =    0.0                 !
 ! D15   D(6,5,8,11)            57.5935         -DE/DX =    0.0                 !
 ! D16   D(7,5,8,9)            180.0011         -DE/DX =    0.0                 !
 ! D17   D(7,5,8,10)            64.8162         -DE/DX =    0.0                 !
 ! D18   D(7,5,8,11)           -57.5914         -DE/DX =    0.0                 !
 ! D19   D(5,8,11,12)           59.8118         -DE/DX =    0.0                 !
 ! D20   D(5,8,11,13)          179.9993         -DE/DX =    0.0                 !
 ! D21   D(5,8,11,14)          -59.8132         -DE/DX =    0.0                 !
 ! D22   D(9,8,11,12)         -178.0089         -DE/DX =    0.0                 !
 ! D23   D(9,8,11,13)          -57.8215         -DE/DX =    0.0                 !
 ! D24   D(9,8,11,14)           62.3661         -DE/DX =    0.0                 !
 ! D25   D(10,8,11,12)         -62.3677         -DE/DX =    0.0                 !
 ! D26   D(10,8,11,13)          57.8198         -DE/DX =    0.0                 !
 ! D27   D(10,8,11,14)         178.0073         -DE/DX =    0.0                 !
 --------------------------------------------------------------------------------
 GradGradGradGradGradGradGradGradGradGradGradGradGradGradGradGradGradGrad


 ----------------------------------------------------------------------

 Electric dipole moment (input orientation):
 (Debye = 10**-18 statcoulomb cm , SI units = C m)
                  (au)            (Debye)         (10**-30 SI)
   Tot        0.000000D+00      0.000000D+00      0.000000D+00
   x          0.000000D+00      0.000000D+00      0.000000D+00
   y          0.000000D+00      0.000000D+00      0.000000D+00
   z          0.000000D+00      0.000000D+00      0.000000D+00

 Dipole polarizability, Alpha (input orientation).
 (esu units = cm**3 , SI units = C**2 m**2 J**-1)
 Alpha(0;0):
               (au)            (10**-24 esu)      (10**-40 SI)
   iso        0.475824D+02      0.705099D+01      0.784528D+01
   aniso      0.103008D+02      0.152642D+01      0.169837D+01
   xx         0.496345D+02      0.735507D+01      0.818362D+01
   yx         0.233218D+01      0.345594D+00      0.384525D+00
   yy         0.449456D+02      0.666025D+01      0.741053D+01
   zx         0.405327D+01      0.600632D+00      0.668294D+00
   zy         0.278351D+01      0.412474D+00      0.458940D+00
   zz         0.481672D+02      0.713764D+01      0.794170D+01

 ----------------------------------------------------------------------

 Dipole orientation:
     6         -3.36728378         -0.04465515          0.22495093
     1         -2.73859923          0.97610676         -1.48193697
     1         -2.68743497          1.03065985          1.87787398
     1         -5.44957918          0.00421400          0.25586305
     6         -2.36374573         -2.75696629          0.25372005
     1         -3.07960177         -3.74920041          1.94880944
     1         -3.13071412         -3.80345223         -1.38546156
     6          0.52746081         -2.91546432          0.21196037
     1          1.29443300         -1.86900893          1.85116178
     1          1.24331358         -1.92319893         -1.48311010
     6          1.53099773         -5.62777676          0.24065180
     1          0.85095396         -6.70312304         -1.41217331
     1          3.61328932         -5.67664995          0.20949098
     1          0.90251111         -6.64850444          1.94763053

 Electric dipole moment (dipole orientation):
 (Debye = 10**-18 statcoulomb cm , SI units = C m)
                  (au)            (Debye)         (10**-30 SI)
   Tot        0.000000D+00      0.000000D+00      0.000000D+00
   x          0.000000D+00      0.000000D+00      0.000000D+00
   y          0.000000D+00      0.000000D+00      0.000000D+00
   z          0.000000D+00      0.000000D+00      0.000000D+00

 Dipole polarizability, Alpha (dipole orientation).
 (esu units = cm**3 , SI units = C**2 m**2 J**-1)
 Alpha(0;0):
               (au)            (10**-24 esu)      (10**-40 SI)
   iso        0.475824D+02      0.705099D+01      0.784528D+01
   aniso      0.103008D+02      0.152642D+01      0.169837D+01
   xx         0.495602D+02      0.734406D+01      0.817137D+01
   yx        -0.467507D+01     -0.692774D+00     -0.770815D+00
   yy         0.498458D+02      0.738639D+01      0.821847D+01
   zx        -0.193287D-01     -0.286421D-02     -0.318687D-02
   zy        -0.341432D-01     -0.505950D-02     -0.562946D-02
   zz         0.433412D+02      0.642251D+01      0.714601D+01

 ----------------------------------------------------------------------
 1\1\GINC-LSQC03\Freq\RB3LYP\CC-pVDZ\C4H10\QINGCHUN\10-Jan-2020\0\\#N G
 eom=AllCheck Guess=TCheck SCRF=Check GenChk RB3LYP/CC-pVDZ Freq\\6-31g
  nt3\\0,1\C,-1.7831002768,0.1012213595,-0.0129498988\H,-1.4424731005,-
 0.9480137599,-0.0502218174\H,-1.4398662641,0.5915619357,-0.9403457149\
 H,-2.885295981,0.0941063694,-0.0284795474\C,-1.2408242872,0.8168776357
 ,1.2264390001\H,-1.6276107293,1.8529455971,1.2541858577\H,-1.630375582
 5,0.3251009051,2.1375982547\C,0.289918329,0.8506236215,1.2896120564\H,
 0.6794716203,1.3424173881,0.3784618011\H,0.6767027676,-0.1854436503,1.
 2618458961\C,0.8321942844,1.5662443132,2.5290215564\H,0.488856541,1.07
 59562401,3.45640804\H,1.9343897856,1.5732453396,2.5446170966\H,0.49167
 10333,2.6155134552,2.5662528495\\Version=ES64L-G16RevA.03\State=1-A\HF
 =-158.4587705\RMSD=6.398e-10\RMSF=7.680e-05\ZeroPoint=0.1309986\Therma
 l=0.1367614\Dipole=0.,0.0000002,-0.0000001\DipoleDeriv=0.0590666,-0.02
 90596,-0.050473,-0.0080388,0.1161007,-0.0152077,-0.014105,-0.0152737,0
 .0984261,0.0313082,0.0804691,0.0005112,0.042479,-0.14827,-0.0398784,-0
 .0240521,-0.0062575,0.0190189,0.0309594,-0.0398584,0.0704194,-0.042239
 9,-0.0024678,0.0773205,0.0251554,0.0438165,-0.1264401,-0.1872245,-0.02
 84048,-0.0498753,-0.0123418,0.0494347,-0.0253848,-0.0220844,-0.0254285
 ,0.0200337,0.1211808,0.0047089,0.0079978,-0.0081128,0.1557665,-0.02440
 25,-0.0141846,-0.0243536,0.1276895,-0.027462,0.0469236,-0.0130989,0.07
 4321,-0.1708031,-0.0404576,-0.0103365,-0.0301621,0.0159763,-0.0278285,
 -0.0347763,0.0345174,-0.0460679,0.0002402,0.0680078,0.059608,0.0576631
 ,-0.1547056,0.1211808,0.0047119,0.0079961,-0.00811,0.1557678,-0.024393
 8,-0.0141862,-0.0243609,0.1276882,-0.0278289,-0.0347771,0.0345178,-0.0
 460694,0.0002387,0.0680097,0.0596109,0.0576647,-0.1547015,-0.0274616,0
 .0469228,-0.0130984,0.0743178,-0.1708043,-0.0404608,-0.0103367,-0.0301
 655,0.0159748,0.0590666,-0.0290641,-0.0504704,-0.0080359,0.1161037,-0.
 0152058,-0.0141066,-0.0152721,0.0984231,0.0309459,-0.039862,0.0704376,
 -0.0422466,-0.0024583,0.0773102,0.0251703,0.0438119,-0.1264333,-0.1872
 244,-0.0283854,-0.0498865,-0.0123174,0.0494349,-0.0253805,-0.0220986,-
 0.0254325,0.0200334,0.0313217,0.0804515,0.0005053,0.0424627,-0.1482839
 ,-0.0398764,-0.0240537,-0.0062498,0.0190165\Polar=49.6344602,2.3321839
 ,44.9456013,4.0532688,2.7835147,48.1671838\Quadrupole=0.011161,0.18928
 49,-0.200446,-0.0999539,-0.1740332,-0.3378561\PG=C01 [X(C4H10)]\NImag=
 0\\0.55590291,-0.01385825,0.53623851,-0.02396831,-0.03265431,0.4985496
 1,-0.07150888,0.07843980,0.00146171,0.07368420,0.07738085,-0.27944525,
 -0.00467217,-0.08499488,0.30417966,0.00103201,-0.00328078,-0.04571671,
 0.00007926,0.00783926,0.04924746,-0.07190241,-0.03808782,0.06918532,0.
 00268163,0.00458089,-0.00935815,0.07411664,-0.03793418,-0.10027130,0.0
 9953566,-0.01047140,-0.01299161,0.02458807,0.04271357,0.10571677,0.068
 05040,0.09814631,-0.22450007,-0.00069804,-0.00065507,0.00076755,-0.074
 14511,-0.10604802,0.24728068,-0.30952003,-0.00002408,-0.00081614,-0.00
 894169,-0.00035116,0.00032863,-0.00901635,0.00048282,-0.00015561,0.334
 94385,0.00116369,-0.04488078,-0.00032151,0.03015011,0.00079644,-0.0002
 4010,-0.01488846,-0.00062144,-0.00060966,0.00059289,0.04564877,0.00123
 894,-0.00032493,-0.04525072,0.00015320,0.00024919,-0.00113478,0.026189
 15,-0.00114316,0.00035786,0.00187602,0.00241477,0.04843636,-0.09088021
 ,-0.01905177,-0.03299219,0.00280591,0.00481815,0.00894123,0.00283658,0
 .00537744,0.00870840,-0.00938163,-0.01638710,-0.02836567,0.47520864,-0
 .01818289,-0.10413182,-0.04705889,-0.01147882,-0.01485493,-0.02711385,
 0.00587243,0.00724542,0.01276379,0.00102424,-0.00108031,0.00126628,-0.
 01579107,0.56127199,-0.03149117,-0.04706151,-0.15844538,0.00017575,0.0
 0003761,-0.00097918,-0.00985836,-0.01434182,-0.02311040,0.00174891,0.0
 0121484,0.00029491,-0.02763596,-0.03028276,0.52629631,0.00334290,-0.01
 225120,-0.00061667,-0.00009091,-0.00136783,-0.00248857,0.00020721,0.00
 062349,0.00034733,0.00050977,-0.00011874,0.00058676,-0.07525022,0.0795
 8817,0.00175397,0.08574176,0.00475743,-0.01461057,-0.00010812,-0.00145
 703,0.00001314,-0.00307895,0.00017614,0.00097142,-0.00030105,-0.000574
 17,0.00029376,0.00014842,0.08054917,-0.26692227,-0.00187665,-0.0878633
 9,0.29126491,0.00887808,-0.02681482,-0.00161179,-0.00199902,-0.0032077
 1,-0.00417414,0.00068109,0.00033876,0.00100478,0.00003698,0.00067110,0
 .00099315,0.00110796,-0.00031064,-0.04716787,0.00076499,0.00528343,0.0
 5039082,0.00337538,0.00556751,-0.01092400,0.00020647,-0.00000760,0.000
 71322,-0.00009007,-0.00147016,-0.00243090,0.00051294,0.00056734,0.0001
 9118,-0.07568124,-0.03840106,0.07032755,0.00337113,0.00475434,-0.00899
 272,0.08622340,0.00535251,0.00676461,-0.01445580,0.00050385,0.00097844
 ,0.00034276,-0.00100104,-0.00040715,-0.00344829,0.00031738,0.00046270,
 0.00076952,-0.03944271,-0.10070598,0.09499734,-0.01025086,-0.01408573,
 0.02412195,0.04470979,0.10553009,0.00862562,0.01219873,-0.02302032,0.0
 0049040,-0.00029740,0.00099741,-0.00226294,-0.00332133,-0.00375456,-0.
 00047893,0.00024906,0.00082221,0.07083351,0.09343193,-0.21295564,-0.00
 035961,0.00036641,-0.00000901,-0.07627763,-0.10121756,0.23564788,-0.01
 474935,-0.00287072,-0.00500830,0.00124854,0.00116300,0.00136295,0.0012
 5143,0.00059863,0.00169021,0.00105819,-0.00001035,-0.00001608,-0.19008
 557,0.00129304,0.00188456,-0.01414638,-0.00044559,-0.00006798,-0.01423
 469,0.00019905,-0.00044216,0.47520863,-0.01774068,-0.00097189,-0.00069
 544,-0.00116140,0.00036284,0.00003065,0.00099310,0.00037191,0.00082565
 ,-0.00166767,-0.00142498,-0.00288499,0.00129394,-0.07770221,-0.0001053
 8,0.03230211,-0.00065838,0.00041593,-0.01664985,-0.00080000,-0.0002819
 9,-0.01579064,0.56127454,-0.03072634,-0.00064946,-0.00181925,0.0004814
 3,0.00082120,0.00087138,-0.00076512,0.00004166,0.00085878,-0.00288166,
 -0.00287944,-0.00474915,0.00188405,-0.00010591,-0.07781601,-0.00065917
 ,-0.00014980,-0.00075348,0.02764583,0.00023371,-0.00052439,-0.02763622
 ,-0.03028130,0.52629371,0.00156163,0.00022369,0.00152132,-0.00003192,-
 0.00002166,-0.00012896,0.00003714,0.00003513,-0.00116174,0.00031929,0.
 00041230,-0.00017414,-0.01423442,-0.01665014,0.02764579,0.00129489,0.0
 0043829,-0.00002414,-0.00686438,-0.00015813,-0.00028510,-0.07568173,-0
 .03840255,0.07032625,0.08622336,0.00019097,-0.00005714,0.00049231,-0.0
 0001223,-0.00002509,0.00011332,-0.00028905,0.00010067,-0.00039786,0.00
 012039,0.00004840,-0.00029180,0.00019920,-0.00079999,0.00023377,-0.000
 23991,0.00078239,-0.00067891,-0.00015807,0.00141382,-0.00058081,-0.039
 44428,-0.10070914,0.09499906,0.04471108,0.10553384,-0.00052160,-0.0004
 4135,0.00090501,0.00000583,-0.00000759,0.00001508,0.00023070,0.0003076
 9,0.00045093,0.00007362,-0.00008681,0.00025895,-0.00044212,-0.00028214
 ,-0.00052411,0.00036864,-0.00031881,0.00020876,-0.00028514,-0.00058075
 ,0.00095752,0.07083224,0.09343333,-0.21295104,-0.07627708,-0.10121943,
 0.23564242,0.00156187,0.00120347,0.00095514,0.00003658,-0.00102314,-0.
 00054813,-0.00003200,-0.00010116,-0.00008317,0.00031774,-0.00035629,0.
 00027131,-0.01414666,0.03230200,-0.00065891,-0.00686422,-0.00014456,-0
 .00029264,0.00129479,-0.00023992,0.00036865,-0.07524973,0.07958855,0.0
 0175590,0.00337113,-0.01025093,-0.00035985,0.08574181,-0.00055003,0.00
 064176,-0.00004160,0.00034437,0.00040471,0.00048369,0.00001108,-0.0000
 4034,-0.00001635,0.00000366,0.00037126,0.00009772,-0.00044555,-0.00065
 863,-0.00014978,-0.00014449,0.00157414,-0.00048846,0.00043830,0.000782
 34,-0.00031881,0.08054948,-0.26692359,-0.00188065,0.00475450,-0.014086
 20,0.00036614,-0.08786322,0.29126646,-0.00009052,0.00089808,0.00020573
 ,-0.00013614,-0.00022528,0.00014773,-0.00000752,0.00010416,0.00003051,
 0.00014138,-0.00010746,-0.00006226,-0.00006812,0.00041574,-0.00075352,
 -0.00029267,-0.00048840,0.00079704,-0.00002414,-0.00067887,0.00020873,
 0.00110994,-0.00031496,-0.04716798,-0.00899254,0.02412168,-0.00000853,
 0.00076361,0.00528837,0.05039098,-0.00657522,0.00050524,0.00085468,0.0
 0001830,-0.00024491,0.00006862,0.00001900,0.00018192,-0.00017918,-0.00
 064590,-0.00102182,-0.00177113,-0.01474935,-0.01774014,-0.03072665,0.0
 0156192,-0.00054981,-0.00009028,0.00156157,0.00019088,-0.00052191,-0.0
 9088021,-0.01818245,-0.03149141,0.00337586,0.00535265,0.00862649,0.003
 34242,0.00475675,0.00887752,0.55590290,0.00050533,-0.00029952,0.000226
 12,-0.00006523,0.00042975,0.00003143,-0.00005832,0.00002837,-0.0002392
 7,0.00032743,0.00056542,-0.00003434,-0.00287020,-0.00097120,-0.0006486
 9,0.00120313,0.00064170,0.00089790,0.00022366,-0.00005716,-0.00044148,
 -0.01905041,-0.10412996,-0.04706039,0.00556778,0.00676430,0.01219908,-
 0.01225147,-0.01461034,-0.02681547,-0.01385959,0.53624227,0.00085462,0
 .00022637,-0.00003520,-0.00010514,-0.00000879,-0.00009123,-0.00010986,
 -0.00019891,0.00030934,0.00056258,-0.00003853,0.00052084,-0.00500860,-
 0.00069541,-0.00181995,0.00095499,-0.00004152,0.00020572,0.00152168,0.
 00049243,0.00090510,-0.03299296,-0.04705783,-0.15844722,-0.01092352,-0
 .01445520,-0.02301996,-0.00061714,-0.00010852,-0.00161205,-0.02396754,
 -0.03265215,0.49854582,0.00001905,-0.00005823,-0.00010990,0.00000013,0
 .00003040,0.00002110,-0.00010753,-0.00004498,0.00012796,-0.00000138,-0
 .00000793,0.00007177,0.00125144,0.00099305,-0.00076546,-0.00003201,0.0
 0001111,-0.00000751,0.00003726,-0.00028902,0.00023072,0.00283752,0.005
 87175,-0.00985854,-0.00009020,-0.00100099,-0.00226318,0.00020710,0.000
 17616,0.00068103,-0.07191783,-0.03809473,0.06920491,0.07413431,0.00018
 195,0.00002835,-0.00019887,0.00000309,-0.00002528,-0.00001834,-0.00004
 497,-0.00007430,0.00004636,0.00000582,-0.00000312,0.00010916,0.0005985
 8,0.00037203,0.00004158,-0.00010115,-0.00004036,0.00010419,0.00003513,
 0.00010066,0.00030770,0.00537868,0.00724446,-0.01434040,-0.00147004,-0
 .00040700,-0.00332103,0.00062347,0.00097113,0.00033878,-0.03794103,-0.
 10025965,0.09952264,0.04272130,0.10570358,-0.00017915,-0.00023931,0.00
 030943,0.00003694,0.00000389,-0.00003349,0.00012798,0.00004638,0.00032
 761,-0.00010747,-0.00007038,0.00001047,0.00169056,0.00082586,0.0008590
 0,-0.00008321,-0.00001633,0.00003050,-0.00116186,-0.00039794,0.0004510
 1,0.00871040,0.01276312,-0.02311035,-0.00243075,-0.00344834,-0.0037546
 8,0.00034724,-0.00030111,0.00100456,0.06806943,0.09813374,-0.22449446,
 -0.07416609,-0.10603465,0.24727451,-0.00064590,0.00032751,0.00056254,-
 0.00000142,-0.00009594,-0.00004831,-0.00000139,0.00000581,-0.00010748,
 -0.00015337,-0.00016160,-0.00028001,0.00105819,-0.00166768,-0.00288165
 ,0.00031770,0.00000371,0.00014138,0.00031934,0.00012042,0.00007358,-0.
 00938163,0.00102483,0.00174857,0.00051277,0.00031727,-0.00047895,0.000
 50994,-0.00057421,0.00003709,-0.30951994,0.00000336,-0.00083200,-0.009
 01947,0.00048372,-0.00015618,0.33494375,-0.00102179,0.00056535,-0.0000
 3858,0.00006597,-0.00000959,0.00010562,-0.00000794,-0.00000313,-0.0000
 7039,-0.00016160,-0.00016655,-0.00030146,-0.00001075,-0.00142480,-0.00
 287952,-0.00035631,0.00037122,-0.00010748,0.00041230,0.00004840,-0.000
 08685,-0.01638692,-0.00107919,0.00121369,0.00056729,0.00046248,0.00024
 905,-0.00011890,0.00029399,0.00067112,0.00119150,-0.04488065,-0.000321
 19,-0.01488705,-0.00061995,-0.00061047,0.00056304,0.04564898,-0.001771
 15,-0.00003437,0.00052091,0.00002872,-0.00007437,0.00001702,0.00007175
 ,0.00010916,0.00001048,-0.00028001,-0.00030150,-0.00051485,-0.00001585
 ,-0.00288472,-0.00474932,0.00027130,0.00009773,-0.00006225,-0.00017411
 ,-0.00029181,0.00025898,-0.02836577,0.00126872,0.00029380,0.00019133,0
 .00076951,0.00082196,0.00058673,0.00014844,0.00099339,0.00122286,-0.00
 032494,-0.04525095,0.02618872,-0.00114579,0.00035939,0.00189328,0.0024
 1480,0.04843625,0.00001825,-0.00006515,-0.00010520,-0.00010692,0.00013
 384,0.00002512,0.00000012,0.00000308,0.00003692,-0.00000144,0.00006596
 ,0.00002870,0.00124853,-0.00116113,0.00048164,0.00003646,0.00034436,-0
 .00013618,-0.00003191,-0.00001222,0.00000579,0.00280497,-0.01147901,0.
 00017643,0.00020658,0.00050390,0.00049040,-0.00009078,-0.00145680,-0.0
 0199894,-0.07149354,0.07841927,0.00145798,0.00268162,-0.01047455,-0.00
 069784,-0.00893857,0.03015117,0.00015219,0.07366663,-0.00024492,0.0004
 2969,-0.00000880,0.00013383,0.00018677,0.00019721,0.00003039,-0.000025
 28,0.00000385,-0.00009595,-0.00000958,-0.00007437,0.00116268,0.0003626
 9,0.00082098,-0.00102304,0.00040463,-0.00022525,-0.00002162,-0.0000250
 5,-0.00000761,0.00481703,-0.01485440,0.00003802,-0.00000753,0.00097866
 ,-0.00029738,-0.00136790,0.00001330,-0.00320748,0.07736082,-0.27946333
 ,-0.00466339,0.00457915,-0.01299056,-0.00065446,-0.00035022,0.00079343
 ,0.00024913,-0.08497272,0.30419902,0.00006857,0.00003135,-0.00009124,0
 .00002510,0.00019723,0.00006592,0.00002108,-0.00001832,-0.00003350,-0.
 00004833,0.00010564,0.00001701,0.00136281,0.00003073,0.00087118,-0.000
 54807,0.00048363,0.00014775,-0.00012895,0.00011329,0.00001507,0.008939
 15,-0.02711552,-0.00097880,0.00071329,0.00034270,0.00099770,-0.0024887
 4,-0.00307907,-0.00417434,0.00102850,-0.00327155,-0.04571581,-0.009355
 52,0.02458867,0.00076650,0.00032814,-0.00023834,-0.00113480,0.00008297
 ,0.00782955,0.04924735\\-0.00006177,0.00001058,0.00001945,0.00003679,-
 0.00009915,0.00000928,0.00003663,0.00005800,-0.00007970,-0.00016564,-0
 .00002300,-0.00003896,0.00020843,-0.00005500,-0.00009805,-0.00002403,0
 .00007324,0.00000528,-0.00002392,-0.00003143,0.00006437,-0.00020843,0.
 00005576,0.00009760,0.00002354,0.00003166,-0.00006515,0.00002441,-0.00
 007246,-0.00000510,0.00006177,-0.00001132,-0.00001902,-0.00003682,-0.0
 0005766,0.00008065,0.00016564,0.00002228,0.00003938,-0.00003659,0.0000
 9850,-0.00001004\\\@


       THE DEATH-KNELL OF THE ATOM

 SO THE ATOMS IN TURN, WE NOW CLEARLY DISCERN,
 FLY TO BITS WITH THE UTMOST FACILITY;
 THEY WEND ON THEIR WAY, AND, IN SPLITTING, DISPLAY
 AN ABSOLUTE LACK OF STABILITY.

          SIR WM. RAMSAY, 1905
 Job cpu time:       0 days  0 hours  8 minutes 50.0 seconds.
 Elapsed time:       0 days  0 hours  1 minutes  7.1 seconds.
 File lengths (MBytes):  RWF=     21 Int=      0 D2E=      0 Chk=      2 Scr=      1
 Normal termination of Gaussian 16 at Fri Jan 10 08:36:57 2020.
