 Entering Gaussian System, Link 0=g16
 Input=benzene_opt.gjf
 Output=benzene_opt.log
 Initial command:
 /home/qingchun/software/g16A_modified_by_qingchun/g16/l1.exe "/scratch/qingchun/gaussian/Gau-4718.inp" -scrdir="/scratch/qingchun/gaussian/"
 Entering Link 1 = /home/qingchun/software/g16A_modified_by_qingchun/g16/l1.exe PID=      4719.
  
 Copyright (c) 1988,1990,1992,1993,1995,1998,2003,2009,2016,
            Gaussian, Inc.  All Rights Reserved.
  
 This is part of the Gaussian(R) 16 program.  It is based on
 the Gaussian(R) 09 system (copyright 2009, Gaussian, Inc.),
 the Gaussian(R) 03 system (copyright 2003, Gaussian, Inc.),
 the Gaussian(R) 98 system (copyright 1998, Gaussian, Inc.),
 the Gaussian(R) 94 system (copyright 1995, Gaussian, Inc.),
 the Gaussian 92(TM) system (copyright 1992, Gaussian, Inc.),
 the Gaussian 90(TM) system (copyright 1990, Gaussian, Inc.),
 the Gaussian 88(TM) system (copyright 1988, Gaussian, Inc.),
 the Gaussian 86(TM) system (copyright 1986, Carnegie Mellon
 University), and the Gaussian 82(TM) system (copyright 1983,
 Carnegie Mellon University). Gaussian is a federally registered
 trademark of Gaussian, Inc.
  
 This software contains proprietary and confidential information,
 including trade secrets, belonging to Gaussian, Inc.
  
 This software is provided under written license and may be
 used, copied, transmitted, or stored only in accord with that
 written license.
  
 The following legend is applicable only to US Government
 contracts under FAR:
  
                    RESTRICTED RIGHTS LEGEND
  
 Use, reproduction and disclosure by the US Government is
 subject to restrictions as set forth in subparagraphs (a)
 and (c) of the Commercial Computer Software - Restricted
 Rights clause in FAR 52.227-19.
  
 Gaussian, Inc.
 340 Quinnipiac St., Bldg. 40, Wallingford CT 06492
  
  
 ---------------------------------------------------------------
 Warning -- This program may not be used in any manner that
 competes with the business of Gaussian, Inc. or will provide
 assistance to any competitor of Gaussian, Inc.  The licensee
 of this program is prohibited from giving any competitor of
 Gaussian, Inc. access to this program.  By using this program,
 the user acknowledges that Gaussian, Inc. is engaged in the
 business of creating and licensing software in the field of
 computational chemistry and represents and warrants to the
 licensee that it is not a competitor of Gaussian, Inc. and that
 it will not use this program in any manner prohibited above.
 ---------------------------------------------------------------
  

 Cite this work as:
 Gaussian 16, Revision A.03,
 M. J. Frisch, G. W. Trucks, H. B. Schlegel, G. E. Scuseria, 
 M. A. Robb, J. R. Cheeseman, G. Scalmani, V. Barone, 
 G. A. Petersson, H. Nakatsuji, X. Li, M. Caricato, A. V. Marenich, 
 J. Bloino, B. G. Janesko, R. Gomperts, B. Mennucci, H. P. Hratchian, 
 J. V. Ortiz, A. F. Izmaylov, J. L. Sonnenberg, D. Williams-Young, 
 F. Ding, F. Lipparini, F. Egidi, J. Goings, B. Peng, A. Petrone, 
 T. Henderson, D. Ranasinghe, V. G. Zakrzewski, J. Gao, N. Rega, 
 G. Zheng, W. Liang, M. Hada, M. Ehara, K. Toyota, R. Fukuda, 
 J. Hasegawa, M. Ishida, T. Nakajima, Y. Honda, O. Kitao, H. Nakai, 
 T. Vreven, K. Throssell, J. A. Montgomery, Jr., J. E. Peralta, 
 F. Ogliaro, M. J. Bearpark, J. J. Heyd, E. N. Brothers, K. N. Kudin, 
 V. N. Staroverov, T. A. Keith, R. Kobayashi, J. Normand, 
 K. Raghavachari, A. P. Rendell, J. C. Burant, S. S. Iyengar, 
 J. Tomasi, M. Cossi, J. M. Millam, M. Klene, C. Adamo, R. Cammi, 
 J. W. Ochterski, R. L. Martin, K. Morokuma, O. Farkas, 
 J. B. Foresman, and D. J. Fox, Gaussian, Inc., Wallingford CT, 2016.
 
 ******************************************
 Gaussian 16:  ES64L-G16RevA.03 25-Dec-2016
                 6-Aug-2020 
 ******************************************
 %nprocshared=8
 Will use up to    8 processors via shared memory.
 %mem=30GB
 %chk=benzene.chk
 ------------------------
 # opt freq b3lyp/cc-pVDZ
 ------------------------
 1/18=20,19=15,26=3,38=1/1,3;
 2/9=110,12=2,17=6,18=5,40=1/2;
 3/5=16,11=2,25=1,30=1,71=1,74=-5/1,2,3;
 4//1;
 5/5=2,38=5/2;
 6/7=2,8=2,9=2,10=2,28=1/1;
 7//1,2,3,16;
 1/18=20,19=15,26=3/3(2);
 2/9=110/2;
 99//99;
 2/9=110/2;
 3/5=16,11=2,25=1,30=1,71=1,74=-5/1,2,3;
 4/5=5,16=3,69=1/1;
 5/5=2,38=5/2;
 7//1,2,3,16;
 1/18=20,19=15,26=3/3(-5);
 2/9=110/2;
 6/7=2,8=2,9=2,10=2,19=2,28=1/1;
 99/9=1/99;
 -------
 cc-pVDZ
 -------
 Symbolic Z-matrix:
 Charge =  0 Multiplicity = 1
 C                    -1.33191  -0.42799   0. 
 C                    -0.29519  -1.36745   0.0001 
 C                     1.03659  -0.93947  -0.00008 
 C                     1.33187   0.4281    0.00001 
 C                     0.2953    1.36742   0.00008 
 C                    -1.03667   0.93938  -0.00008 
 H                    -2.37202  -0.76235  -0.00007 
 H                    -0.52591  -2.43535   0.00007 
 H                     1.84624  -1.673    -0.00018 
 H                     2.37207   0.76219  -0.00001 
 H                     0.52577   2.43537   0.00004 
 H                    -1.84615   1.67313  -0.00007 
 

 GradGradGradGradGradGradGradGradGradGradGradGradGradGradGradGradGradGrad
 Berny optimization.
 Initialization pass.
                           ----------------------------
                           !    Initial Parameters    !
                           ! (Angstroms and Degrees)  !
 --------------------------                            --------------------------
 ! Name  Definition              Value          Derivative Info.                !
 --------------------------------------------------------------------------------
 ! R1    R(1,2)                  1.3991         estimate D2E/DX2                !
 ! R2    R(1,6)                  1.3989         estimate D2E/DX2                !
 ! R3    R(1,7)                  1.0925         estimate D2E/DX2                !
 ! R4    R(2,3)                  1.3989         estimate D2E/DX2                !
 ! R5    R(2,8)                  1.0925         estimate D2E/DX2                !
 ! R6    R(3,4)                  1.3991         estimate D2E/DX2                !
 ! R7    R(3,9)                  1.0925         estimate D2E/DX2                !
 ! R8    R(4,5)                  1.3989         estimate D2E/DX2                !
 ! R9    R(4,10)                 1.0925         estimate D2E/DX2                !
 ! R10   R(5,6)                  1.3991         estimate D2E/DX2                !
 ! R11   R(5,11)                 1.0925         estimate D2E/DX2                !
 ! R12   R(6,12)                 1.0925         estimate D2E/DX2                !
 ! A1    A(2,1,6)              119.9981         estimate D2E/DX2                !
 ! A2    A(2,1,7)              119.9968         estimate D2E/DX2                !
 ! A3    A(6,1,7)              120.0051         estimate D2E/DX2                !
 ! A4    A(1,2,3)              120.0022         estimate D2E/DX2                !
 ! A5    A(1,2,8)              119.991          estimate D2E/DX2                !
 ! A6    A(3,2,8)              120.0068         estimate D2E/DX2                !
 ! A7    A(2,3,4)              119.9997         estimate D2E/DX2                !
 ! A8    A(2,3,9)              120.0084         estimate D2E/DX2                !
 ! A9    A(4,3,9)              119.9919         estimate D2E/DX2                !
 ! A10   A(3,4,5)              119.9981         estimate D2E/DX2                !
 ! A11   A(3,4,10)             119.9904         estimate D2E/DX2                !
 ! A12   A(5,4,10)             120.0115         estimate D2E/DX2                !
 ! A13   A(4,5,6)              120.0025         estimate D2E/DX2                !
 ! A14   A(4,5,11)             120.0045         estimate D2E/DX2                !
 ! A15   A(6,5,11)             119.993          estimate D2E/DX2                !
 ! A16   A(1,6,5)              119.9995         estimate D2E/DX2                !
 ! A17   A(1,6,12)             120.006          estimate D2E/DX2                !
 ! A18   A(5,6,12)             119.9946         estimate D2E/DX2                !
 ! D1    D(6,1,2,3)             -0.0091         estimate D2E/DX2                !
 ! D2    D(6,1,2,8)           -179.9944         estimate D2E/DX2                !
 ! D3    D(7,1,2,3)            179.9875         estimate D2E/DX2                !
 ! D4    D(7,1,2,8)              0.0021         estimate D2E/DX2                !
 ! D5    D(2,1,6,5)             -0.0064         estimate D2E/DX2                !
 ! D6    D(2,1,6,12)          -179.9953         estimate D2E/DX2                !
 ! D7    D(7,1,6,5)            179.997          estimate D2E/DX2                !
 ! D8    D(7,1,6,12)             0.0082         estimate D2E/DX2                !
 ! D9    D(1,2,3,4)              0.0171         estimate D2E/DX2                !
 ! D10   D(1,2,3,9)           -179.9892         estimate D2E/DX2                !
 ! D11   D(8,2,3,4)           -179.9975         estimate D2E/DX2                !
 ! D12   D(8,2,3,9)             -0.0039         estimate D2E/DX2                !
 ! D13   D(2,3,4,5)             -0.0096         estimate D2E/DX2                !
 ! D14   D(2,3,4,10)           179.9929         estimate D2E/DX2                !
 ! D15   D(9,3,4,5)            179.9967         estimate D2E/DX2                !
 ! D16   D(9,3,4,10)            -0.0008         estimate D2E/DX2                !
 ! D17   D(3,4,5,6)             -0.0059         estimate D2E/DX2                !
 ! D18   D(3,4,5,11)          -179.9932         estimate D2E/DX2                !
 ! D19   D(10,4,5,6)           179.9916         estimate D2E/DX2                !
 ! D20   D(10,4,5,11)            0.0043         estimate D2E/DX2                !
 ! D21   D(4,5,6,1)              0.0139         estimate D2E/DX2                !
 ! D22   D(4,5,6,12)          -179.9972         estimate D2E/DX2                !
 ! D23   D(11,5,6,1)          -179.9987         estimate D2E/DX2                !
 ! D24   D(11,5,6,12)           -0.0099         estimate D2E/DX2                !
 --------------------------------------------------------------------------------
 Trust Radius=3.00D-01 FncErr=1.00D-07 GrdErr=1.00D-06 EigMax=2.50D+02 EigMin=1.00D-04
 Number of steps in this run=     64 maximum allowed number of steps=    100.
 GradGradGradGradGradGradGradGradGradGradGradGradGradGradGradGradGradGrad

                          Input orientation:                          
 ---------------------------------------------------------------------
 Center     Atomic      Atomic             Coordinates (Angstroms)
 Number     Number       Type             X           Y           Z
 ---------------------------------------------------------------------
      1          6           0       -1.331910   -0.427990    0.000002
      2          6           0       -0.295191   -1.367449    0.000098
      3          6           0        1.036590   -0.939465   -0.000077
      4          6           0        1.331874    0.428100    0.000014
      5          6           0        0.295304    1.367422    0.000076
      6          6           0       -1.036666    0.939384   -0.000077
      7          1           0       -2.372022   -0.762350   -0.000068
      8          1           0       -0.525912   -2.435352    0.000068
      9          1           0        1.846244   -1.673001   -0.000180
     10          1           0        2.372065    0.762193   -0.000005
     11          1           0        0.525771    2.435372    0.000035
     12          1           0       -1.846146    1.673125   -0.000074
 ---------------------------------------------------------------------
                    Distance matrix (angstroms):
                    1          2          3          4          5
     1  C    0.000000
     2  C    1.399060   0.000000
     3  C    2.423097   1.398861   0.000000
     4  C    2.797970   2.423084   1.399081   0.000000
     5  C    2.423083   2.797893   2.423063   1.398858   0.000000
     6  C    1.398886   2.423069   2.797939   2.423096   1.399057
     7  H    1.092534   2.163186   3.413210   3.890503   3.413291
     8  H    2.163131   1.092542   2.163121   3.413316   3.890435
     9  H    3.413314   2.163124   1.092527   2.163146   3.413149
    10  H    3.890497   3.413155   2.163130   1.092527   2.163155
    11  H    3.413183   3.890428   3.413277   2.163086   1.092535
    12  H    2.163128   3.413290   3.890475   3.413195   2.163160
                    6          7          8          9         10
     6  C    0.000000
     7  H    2.163117   0.000000
     8  H    3.413168   2.491397   0.000000
     9  H    3.890466   4.315444   2.491647   0.000000
    10  H    3.413333   4.983030   4.315387   2.491316   0.000000
    11  H    2.163143   4.315395   4.982970   4.315365   2.491652
    12  H    1.092535   2.491603   4.315391   4.983001   4.315449
                   11         12
    11  H    0.000000
    12  H    2.491387   0.000000
 Stoichiometry    C6H6
 Framework group  C1[X(C6H6)]
 Deg. of freedom    30
 Full point group                 C1      NOp   1
 Largest Abelian subgroup         C1      NOp   1
 Largest concise Abelian subgroup C1      NOp   1
                         Standard orientation:                         
 ---------------------------------------------------------------------
 Center     Atomic      Atomic             Coordinates (Angstroms)
 Number     Number       Type             X           Y           Z
 ---------------------------------------------------------------------
      1          6           0       -1.333065    0.424379   -0.000002
      2          6           0       -0.298896    1.366644   -0.000098
      3          6           0        1.034040    0.942271    0.000077
      4          6           0        1.333029   -0.424489   -0.000014
      5          6           0        0.299009   -1.366617   -0.000076
      6          6           0       -1.034117   -0.942190    0.000077
      7          1           0       -2.374079    0.755919    0.000068
      8          1           0       -0.532510    2.433918   -0.000068
      9          1           0        1.841703    1.677998    0.000180
     10          1           0        2.374122   -0.755762    0.000005
     11          1           0        0.532369   -2.433938   -0.000035
     12          1           0       -1.841605   -1.678122    0.000074
 ---------------------------------------------------------------------
 Rotational constants (GHZ):           5.6642243           5.6640507           2.8320687
 Standard basis: CC-pVDZ (5D, 7F)
 There are   120 symmetry adapted cartesian basis functions of A   symmetry.
 There are   114 symmetry adapted basis functions of A   symmetry.
   114 basis functions,   240 primitive gaussians,   120 cartesian basis functions
    21 alpha electrons       21 beta electrons
       nuclear repulsion energy       202.7418106759 Hartrees.
 NAtoms=   12 NActive=   12 NUniq=   12 SFac= 1.00D+00 NAtFMM=   60 NAOKFM=F Big=F
 Integral buffers will be    131072 words long.
 Raffenetti 2 integral format.
 Two-electron integral symmetry is turned on.
 One-electron integrals computed using PRISM.
 NBasis=   114 RedAO= T EigKep=  3.73D-04  NBF=   114
 NBsUse=   114 1.00D-06 EigRej= -1.00D+00 NBFU=   114
 ExpMin= 1.22D-01 ExpMax= 6.67D+03 ExpMxC= 2.28D+02 IAcc=3 IRadAn=         5 AccDes= 0.00D+00
 Harris functional with IExCor=  402 and IRadAn=       5 diagonalized for initial guess.
 HarFok:  IExCor=  402 AccDes= 0.00D+00 IRadAn=         5 IDoV= 1 UseB2=F ITyADJ=14
 ICtDFT=  3500011 ScaDFX=  1.000000  1.000000  1.000000  1.000000
 FoFCou: FMM=F IPFlag=           0 FMFlag=      100000 FMFlg1=           0
         NFxFlg=           0 DoJE=T BraDBF=F KetDBF=T FulRan=T
         wScrn=  0.000000 ICntrl=       500 IOpCl=  0 I1Cent=   200000004 NGrid=           0
         NMat0=    1 NMatS0=      1 NMatT0=    0 NMatD0=    1 NMtDS0=    0 NMtDT0=    0
 Petite list used in FoFCou.
 Keep R1 ints in memory in canonical form, NReq=29057446.
 Requested convergence on RMS density matrix=1.00D-08 within 128 cycles.
 Requested convergence on MAX density matrix=1.00D-06.
 Requested convergence on             energy=1.00D-06.
 No special actions if energy rises.
 Integral accuracy reduced to 1.0D-05 until final iterations.
 Initial convergence to 1.0D-05 achieved.  Increase integral accuracy.
 SCF Done:  E(RB3LYP) =  -232.262950724     A.U. after   10 cycles
            NFock= 10  Conv=0.68D-08     -V/T= 2.0076

 **********************************************************************

            Population analysis using the SCF density.

 **********************************************************************

 Orbital symmetries:
       Occupied  (A) (A) (A) (A) (A) (A) (A) (A) (A) (A) (A) (A)
                 (A) (A) (A) (A) (A) (A) (A) (A) (A)
       Virtual   (A) (A) (A) (A) (A) (A) (A) (A) (A) (A) (A) (A)
                 (A) (A) (A) (A) (A) (A) (A) (A) (A) (A) (A) (A)
                 (A) (A) (A) (A) (A) (A) (A) (A) (A) (A) (A) (A)
                 (A) (A) (A) (A) (A) (A) (A) (A) (A) (A) (A) (A)
                 (A) (A) (A) (A) (A) (A) (A) (A) (A) (A) (A) (A)
                 (A) (A) (A) (A) (A) (A) (A) (A) (A) (A) (A) (A)
                 (A) (A) (A) (A) (A) (A) (A) (A) (A) (A) (A) (A)
                 (A) (A) (A) (A) (A) (A) (A) (A) (A)
 The electronic state is 1-A.
 Alpha  occ. eigenvalues --  -10.19191 -10.19170 -10.19170 -10.19122 -10.19122
 Alpha  occ. eigenvalues --  -10.19100  -0.85207  -0.74493  -0.74492  -0.60136
 Alpha  occ. eigenvalues --   -0.60136  -0.52008  -0.46016  -0.44467  -0.42001
 Alpha  occ. eigenvalues --   -0.42000  -0.36575  -0.34351  -0.34349  -0.25321
 Alpha  occ. eigenvalues --   -0.25321
 Alpha virt. eigenvalues --   -0.00666  -0.00665   0.05728   0.09790   0.09790
 Alpha virt. eigenvalues --    0.13266   0.13266   0.15019   0.15165   0.27640
 Alpha virt. eigenvalues --    0.27640   0.29493   0.29495   0.40295   0.40753
 Alpha virt. eigenvalues --    0.46143   0.46506   0.50974   0.50975   0.51453
 Alpha virt. eigenvalues --    0.51453   0.51940   0.51940   0.52613   0.54058
 Alpha virt. eigenvalues --    0.59240   0.59241   0.64340   0.64340   0.64747
 Alpha virt. eigenvalues --    0.64748   0.66719   0.71861   0.78622   0.82741
 Alpha virt. eigenvalues --    0.85694   0.88255   0.88256   0.92414   0.99295
 Alpha virt. eigenvalues --    0.99296   1.00519   1.00520   1.01064   1.01067
 Alpha virt. eigenvalues --    1.05581   1.07100   1.07102   1.21122   1.27606
 Alpha virt. eigenvalues --    1.27608   1.45820   1.47463   1.47464   1.50891
 Alpha virt. eigenvalues --    1.53498   1.59817   1.59819   1.59896   1.59899
 Alpha virt. eigenvalues --    1.62755   1.67786   1.67789   1.68992   1.68996
 Alpha virt. eigenvalues --    1.72499   1.79264   1.79265   1.83379   1.83904
 Alpha virt. eigenvalues --    1.83905   1.84386   1.84390   1.88350   1.97328
 Alpha virt. eigenvalues --    1.97329   1.97785   1.97786   2.00707   2.19071
 Alpha virt. eigenvalues --    2.25054   2.34974   2.41536   2.41538   2.41940
 Alpha virt. eigenvalues --    2.41943   2.62610   2.62616   2.69302   2.78085
 Alpha virt. eigenvalues --    2.89483   2.89485   3.62584
          Condensed to atoms (all electrons):
               1          2          3          4          5          6
     1  C    4.738769   0.495623   0.002964  -0.072903   0.002963   0.495694
     2  C    0.495623   4.738765   0.495689   0.002962  -0.072911   0.002962
     3  C    0.002964   0.495689   4.738752   0.495634   0.002963  -0.072905
     4  C   -0.072903   0.002962   0.495634   4.738759   0.495688   0.002965
     5  C    0.002963  -0.072911   0.002963   0.495688   4.738756   0.495624
     6  C    0.495694   0.002962  -0.072905   0.002965   0.495624   4.738764
     7  H    0.389078  -0.050653   0.010083  -0.000199   0.010081  -0.050670
     8  H   -0.050654   0.389077  -0.050677   0.010080  -0.000199   0.010084
     9  H    0.010080  -0.050676   0.389076  -0.050649   0.010085  -0.000199
    10  H   -0.000199   0.010085  -0.050646   0.389078  -0.050678   0.010080
    11  H    0.010084  -0.000199   0.010081  -0.050678   0.389077  -0.050655
    12  H   -0.050673   0.010081  -0.000199   0.010083  -0.050652   0.389077
               7          8          9         10         11         12
     1  C    0.389078  -0.050654   0.010080  -0.000199   0.010084  -0.050673
     2  C   -0.050653   0.389077  -0.050676   0.010085  -0.000199   0.010081
     3  C    0.010083  -0.050677   0.389076  -0.050646   0.010081  -0.000199
     4  C   -0.000199   0.010080  -0.050649   0.389078  -0.050678   0.010083
     5  C    0.010081  -0.000199   0.010085  -0.050678   0.389077  -0.050652
     6  C   -0.050670   0.010084  -0.000199   0.010080  -0.050655   0.389077
     7  H    0.753504  -0.015749  -0.000305   0.000067  -0.000306  -0.015746
     8  H   -0.015749   0.753514  -0.015747  -0.000306   0.000067  -0.000306
     9  H   -0.000305  -0.015747   0.753513  -0.015750  -0.000306   0.000067
    10  H    0.000067  -0.000306  -0.015750   0.753508  -0.015747  -0.000305
    11  H   -0.000306   0.000067  -0.000306  -0.015747   0.753518  -0.015750
    12  H   -0.015746  -0.000306   0.000067  -0.000305  -0.015750   0.753508
 Mulliken charges:
               1
     1  C    0.029175
     2  C    0.029196
     3  C    0.029185
     4  C    0.029178
     5  C    0.029204
     6  C    0.029180
     7  H   -0.029184
     8  H   -0.029184
     9  H   -0.029189
    10  H   -0.029187
    11  H   -0.029187
    12  H   -0.029185
 Sum of Mulliken charges =   0.00000
 Mulliken charges with hydrogens summed into heavy atoms:
               1
     1  C   -0.000009
     2  C    0.000011
     3  C   -0.000004
     4  C   -0.000010
     5  C    0.000017
     6  C   -0.000005
 Electronic spatial extent (au):  <R**2>=            461.2837
 Charge=              0.0000 electrons
 Dipole moment (field-independent basis, Debye):
    X=              0.0000    Y=              0.0000    Z=              0.0001  Tot=              0.0001
 Quadrupole moment (field-independent basis, Debye-Ang):
   XX=            -32.0269   YY=            -32.0279   ZZ=            -39.0759
   XY=              0.0001   XZ=              0.0001   YZ=              0.0001
 Traceless Quadrupole moment (field-independent basis, Debye-Ang):
   XX=              2.3500   YY=              2.3490   ZZ=             -4.6990
   XY=              0.0001   XZ=              0.0001   YZ=              0.0001
 Octapole moment (field-independent basis, Debye-Ang**2):
  XXX=              0.0025  YYY=             -0.0018  ZZZ=              0.0002  XYY=             -0.0024
  XXY=              0.0018  XXZ=              0.0009  XZZ=              0.0001  YZZ=              0.0000
  YYZ=              0.0003  XYZ=              0.0004
 Hexadecapole moment (field-independent basis, Debye-Ang**3):
 XXXX=           -278.4497 YYYY=           -278.4509 ZZZZ=            -42.9344 XXXY=              0.0005
 XXXZ=             -0.0001 YYYX=              0.0004 YYYZ=              0.0002 ZZZX=              0.0000
 ZZZY=              0.0001 XXYY=            -92.8172 XXZZ=            -61.9432 YYZZ=            -61.9418
 XXYZ=              0.0007 YYXZ=              0.0005 ZZXY=              0.0000
 N-N= 2.027418106759D+02 E-N=-9.432473733747D+02  KE= 2.305069044296D+02
 Calling FoFJK, ICntrl=      2127 FMM=F ISym2X=0 I1Cent= 0 IOpClX= 0 NMat=1 NMatS=1 NMatT=0.
 ***** Axes restored to original set *****
 -------------------------------------------------------------------
 Center     Atomic                   Forces (Hartrees/Bohr)
 Number     Number              X              Y              Z
 -------------------------------------------------------------------
      1        6           0.000426344    0.000062071   -0.000000489
      2        6          -0.000012103    0.000402688   -0.000024901
      3        6          -0.000245402    0.000357321    0.000018517
      4        6          -0.000372124   -0.000238720   -0.000003511
      5        6          -0.000166943   -0.000364713   -0.000018264
      6        6           0.000361707   -0.000222658    0.000020408
      7        1          -0.000116056   -0.000033822    0.000003344
      8        1          -0.000013439   -0.000116403    0.000003179
      9        1           0.000084606   -0.000093867    0.000001822
     10        1           0.000114192    0.000053909   -0.000000324
     11        1           0.000031680    0.000117940    0.000004813
     12        1          -0.000092463    0.000076253   -0.000004595
 -------------------------------------------------------------------
 Cartesian Forces:  Max     0.000426344 RMS     0.000179808

 GradGradGradGradGradGradGradGradGradGradGradGradGradGradGradGradGradGrad
 Berny optimization.
 FormGI is forming the generalized inverse of G from B-inverse, IUseBI=4.
 Internal  Forces:  Max     0.000341434 RMS     0.000106418
 Search for a local minimum.
 Step number   1 out of a maximum of   64
 All quantities printed in internal units (Hartrees-Bohrs-Radians)
 Mixed Optimization -- En-DIIS/RFO-DIIS
 Second derivative matrix not updated -- first step.
 ITU=  0
     Eigenvalues ---    0.02102   0.02102   0.02102   0.02102   0.02102
     Eigenvalues ---    0.02102   0.02103   0.02103   0.02103   0.16000
     Eigenvalues ---    0.16000   0.16000   0.16000   0.16000   0.16000
     Eigenvalues ---    0.22000   0.22000   0.22000   0.34520   0.34521
     Eigenvalues ---    0.34521   0.34521   0.34522   0.34522   0.41587
     Eigenvalues ---    0.41589   0.45776   0.45791   0.45794   0.45809
 RFO step:  Lambda=-1.42192727D-06 EMin= 2.10160934D-02
 Linear search not attempted -- first point.
 Iteration  1 RMS(Cart)=  0.00025216 RMS(Int)=  0.00000003
 Iteration  2 RMS(Cart)=  0.00000003 RMS(Int)=  0.00000001
 Variable       Old X    -DE/DX   Delta X   Delta X   Delta X     New X
                                 (Linear)    (Quad)   (Total)
    R1        2.64384  -0.00034   0.00000  -0.00073  -0.00073   2.64311
    R2        2.64351  -0.00025   0.00000  -0.00055  -0.00055   2.64297
    R3        2.06459   0.00012   0.00000   0.00035   0.00035   2.06494
    R4        2.64346  -0.00024   0.00000  -0.00053  -0.00053   2.64293
    R5        2.06461   0.00012   0.00000   0.00034   0.00034   2.06494
    R6        2.64388  -0.00034   0.00000  -0.00075  -0.00075   2.64313
    R7        2.06458   0.00013   0.00000   0.00036   0.00036   2.06494
    R8        2.64346  -0.00024   0.00000  -0.00052  -0.00052   2.64294
    R9        2.06458   0.00013   0.00000   0.00036   0.00036   2.06494
   R10        2.64383  -0.00034   0.00000  -0.00073  -0.00073   2.64310
   R11        2.06459   0.00012   0.00000   0.00035   0.00035   2.06494
   R12        2.06459   0.00012   0.00000   0.00035   0.00035   2.06494
    A1        2.09436   0.00001   0.00000   0.00003   0.00003   2.09439
    A2        2.09434   0.00000   0.00000   0.00000   0.00000   2.09434
    A3        2.09448  -0.00001   0.00000  -0.00003  -0.00003   2.09445
    A4        2.09443  -0.00001   0.00000  -0.00004  -0.00004   2.09440
    A5        2.09424   0.00002   0.00000   0.00010   0.00010   2.09433
    A6        2.09451  -0.00001   0.00000  -0.00006  -0.00006   2.09445
    A7        2.09439   0.00000   0.00000   0.00001   0.00001   2.09440
    A8        2.09454  -0.00001   0.00000  -0.00008  -0.00008   2.09446
    A9        2.09425   0.00001   0.00000   0.00007   0.00007   2.09433
   A10        2.09436   0.00001   0.00000   0.00003   0.00003   2.09439
   A11        2.09423   0.00001   0.00000   0.00010   0.00010   2.09432
   A12        2.09460  -0.00002   0.00000  -0.00013  -0.00013   2.09447
   A13        2.09444  -0.00001   0.00000  -0.00004  -0.00004   2.09440
   A14        2.09447   0.00000   0.00000  -0.00001  -0.00001   2.09446
   A15        2.09427   0.00001   0.00000   0.00006   0.00006   2.09433
   A16        2.09439   0.00000   0.00000   0.00001   0.00001   2.09440
   A17        2.09450  -0.00001   0.00000  -0.00005  -0.00005   2.09445
   A18        2.09430   0.00001   0.00000   0.00004   0.00004   2.09434
    D1       -0.00016   0.00000   0.00000   0.00022   0.00022   0.00007
    D2       -3.14150   0.00000   0.00000  -0.00013  -0.00013   3.14155
    D3        3.14137   0.00001   0.00000   0.00029   0.00029  -3.14153
    D4        0.00004   0.00000   0.00000  -0.00007  -0.00007  -0.00004
    D5       -0.00011   0.00000   0.00000   0.00015   0.00015   0.00004
    D6       -3.14151   0.00000   0.00000  -0.00010  -0.00010   3.14158
    D7        3.14154   0.00000   0.00000   0.00009   0.00009  -3.14156
    D8        0.00014   0.00000   0.00000  -0.00016  -0.00016  -0.00002
    D9        0.00030  -0.00001   0.00000  -0.00042  -0.00042  -0.00012
   D10       -3.14140   0.00000   0.00000  -0.00024  -0.00024   3.14154
   D11       -3.14155   0.00000   0.00000  -0.00006  -0.00006   3.14158
   D12       -0.00007   0.00000   0.00000   0.00012   0.00012   0.00006
   D13       -0.00017   0.00001   0.00000   0.00024   0.00024   0.00007
   D14        3.14147   0.00000   0.00000   0.00017   0.00017  -3.14155
   D15        3.14153   0.00000   0.00000   0.00006   0.00006   3.14159
   D16       -0.00001   0.00000   0.00000  -0.00002  -0.00002  -0.00003
   D17       -0.00010   0.00000   0.00000   0.00014   0.00014   0.00003
   D18       -3.14147   0.00000   0.00000  -0.00016  -0.00016   3.14156
   D19        3.14145   0.00000   0.00000   0.00021   0.00021  -3.14153
   D20        0.00007   0.00000   0.00000  -0.00008  -0.00008  -0.00001
   D21        0.00024  -0.00001   0.00000  -0.00033  -0.00033  -0.00009
   D22       -3.14154   0.00000   0.00000  -0.00008  -0.00008   3.14156
   D23       -3.14157   0.00000   0.00000  -0.00004  -0.00004   3.14158
   D24       -0.00017   0.00000   0.00000   0.00021   0.00021   0.00004
         Item               Value     Threshold  Converged?
 Maximum Force            0.000341     0.000450     YES
 RMS     Force            0.000106     0.000300     YES
 Maximum Displacement     0.000651     0.001800     YES
 RMS     Displacement     0.000252     0.001200     YES
 Predicted change in Energy=-7.109635D-07
 Optimization completed.
    -- Stationary point found.
                           ----------------------------
                           !   Optimized Parameters   !
                           ! (Angstroms and Degrees)  !
 --------------------------                            --------------------------
 ! Name  Definition              Value          Derivative Info.                !
 --------------------------------------------------------------------------------
 ! R1    R(1,2)                  1.3991         -DE/DX =   -0.0003              !
 ! R2    R(1,6)                  1.3989         -DE/DX =   -0.0002              !
 ! R3    R(1,7)                  1.0925         -DE/DX =    0.0001              !
 ! R4    R(2,3)                  1.3989         -DE/DX =   -0.0002              !
 ! R5    R(2,8)                  1.0925         -DE/DX =    0.0001              !
 ! R6    R(3,4)                  1.3991         -DE/DX =   -0.0003              !
 ! R7    R(3,9)                  1.0925         -DE/DX =    0.0001              !
 ! R8    R(4,5)                  1.3989         -DE/DX =   -0.0002              !
 ! R9    R(4,10)                 1.0925         -DE/DX =    0.0001              !
 ! R10   R(5,6)                  1.3991         -DE/DX =   -0.0003              !
 ! R11   R(5,11)                 1.0925         -DE/DX =    0.0001              !
 ! R12   R(6,12)                 1.0925         -DE/DX =    0.0001              !
 ! A1    A(2,1,6)              119.9981         -DE/DX =    0.0                 !
 ! A2    A(2,1,7)              119.9968         -DE/DX =    0.0                 !
 ! A3    A(6,1,7)              120.0051         -DE/DX =    0.0                 !
 ! A4    A(1,2,3)              120.0022         -DE/DX =    0.0                 !
 ! A5    A(1,2,8)              119.991          -DE/DX =    0.0                 !
 ! A6    A(3,2,8)              120.0068         -DE/DX =    0.0                 !
 ! A7    A(2,3,4)              119.9997         -DE/DX =    0.0                 !
 ! A8    A(2,3,9)              120.0084         -DE/DX =    0.0                 !
 ! A9    A(4,3,9)              119.9919         -DE/DX =    0.0                 !
 ! A10   A(3,4,5)              119.9981         -DE/DX =    0.0                 !
 ! A11   A(3,4,10)             119.9904         -DE/DX =    0.0                 !
 ! A12   A(5,4,10)             120.0115         -DE/DX =    0.0                 !
 ! A13   A(4,5,6)              120.0025         -DE/DX =    0.0                 !
 ! A14   A(4,5,11)             120.0045         -DE/DX =    0.0                 !
 ! A15   A(6,5,11)             119.993          -DE/DX =    0.0                 !
 ! A16   A(1,6,5)              119.9995         -DE/DX =    0.0                 !
 ! A17   A(1,6,12)             120.006          -DE/DX =    0.0                 !
 ! A18   A(5,6,12)             119.9946         -DE/DX =    0.0                 !
 ! D1    D(6,1,2,3)             -0.0091         -DE/DX =    0.0                 !
 ! D2    D(6,1,2,8)            180.0056         -DE/DX =    0.0                 !
 ! D3    D(7,1,2,3)           -180.0125         -DE/DX =    0.0                 !
 ! D4    D(7,1,2,8)              0.0021         -DE/DX =    0.0                 !
 ! D5    D(2,1,6,5)             -0.0064         -DE/DX =    0.0                 !
 ! D6    D(2,1,6,12)           180.0047         -DE/DX =    0.0                 !
 ! D7    D(7,1,6,5)           -180.003          -DE/DX =    0.0                 !
 ! D8    D(7,1,6,12)             0.0082         -DE/DX =    0.0                 !
 ! D9    D(1,2,3,4)              0.0171         -DE/DX =    0.0                 !
 ! D10   D(1,2,3,9)            180.0108         -DE/DX =    0.0                 !
 ! D11   D(8,2,3,4)            180.0025         -DE/DX =    0.0                 !
 ! D12   D(8,2,3,9)             -0.0039         -DE/DX =    0.0                 !
 ! D13   D(2,3,4,5)             -0.0096         -DE/DX =    0.0                 !
 ! D14   D(2,3,4,10)          -180.0071         -DE/DX =    0.0                 !
 ! D15   D(9,3,4,5)            179.9967         -DE/DX =    0.0                 !
 ! D16   D(9,3,4,10)            -0.0008         -DE/DX =    0.0                 !
 ! D17   D(3,4,5,6)             -0.0059         -DE/DX =    0.0                 !
 ! D18   D(3,4,5,11)           180.0068         -DE/DX =    0.0                 !
 ! D19   D(10,4,5,6)          -180.0084         -DE/DX =    0.0                 !
 ! D20   D(10,4,5,11)            0.0043         -DE/DX =    0.0                 !
 ! D21   D(4,5,6,1)              0.0139         -DE/DX =    0.0                 !
 ! D22   D(4,5,6,12)           180.0028         -DE/DX =    0.0                 !
 ! D23   D(11,5,6,1)           180.0013         -DE/DX =    0.0                 !
 ! D24   D(11,5,6,12)           -0.0099         -DE/DX =    0.0                 !
 --------------------------------------------------------------------------------
 GradGradGradGradGradGradGradGradGradGradGradGradGradGradGradGradGradGrad

                          Input orientation:                          
 ---------------------------------------------------------------------
 Center     Atomic      Atomic             Coordinates (Angstroms)
 Number     Number       Type             X           Y           Z
 ---------------------------------------------------------------------
      1          6           0       -1.331910   -0.427990    0.000002
      2          6           0       -0.295191   -1.367449    0.000098
      3          6           0        1.036590   -0.939465   -0.000077
      4          6           0        1.331874    0.428100    0.000014
      5          6           0        0.295304    1.367422    0.000076
      6          6           0       -1.036666    0.939384   -0.000077
      7          1           0       -2.372022   -0.762350   -0.000068
      8          1           0       -0.525912   -2.435352    0.000068
      9          1           0        1.846244   -1.673001   -0.000180
     10          1           0        2.372065    0.762193   -0.000005
     11          1           0        0.525771    2.435372    0.000035
     12          1           0       -1.846146    1.673125   -0.000074
 ---------------------------------------------------------------------
                    Distance matrix (angstroms):
                    1          2          3          4          5
     1  C    0.000000
     2  C    1.399060   0.000000
     3  C    2.423097   1.398861   0.000000
     4  C    2.797970   2.423084   1.399081   0.000000
     5  C    2.423083   2.797893   2.423063   1.398858   0.000000
     6  C    1.398886   2.423069   2.797939   2.423096   1.399057
     7  H    1.092534   2.163186   3.413210   3.890503   3.413291
     8  H    2.163131   1.092542   2.163121   3.413316   3.890435
     9  H    3.413314   2.163124   1.092527   2.163146   3.413149
    10  H    3.890497   3.413155   2.163130   1.092527   2.163155
    11  H    3.413183   3.890428   3.413277   2.163086   1.092535
    12  H    2.163128   3.413290   3.890475   3.413195   2.163160
                    6          7          8          9         10
     6  C    0.000000
     7  H    2.163117   0.000000
     8  H    3.413168   2.491397   0.000000
     9  H    3.890466   4.315444   2.491647   0.000000
    10  H    3.413333   4.983030   4.315387   2.491316   0.000000
    11  H    2.163143   4.315395   4.982970   4.315365   2.491652
    12  H    1.092535   2.491603   4.315391   4.983001   4.315449
                   11         12
    11  H    0.000000
    12  H    2.491387   0.000000
 Stoichiometry    C6H6
 Framework group  C1[X(C6H6)]
 Deg. of freedom    30
 Full point group                 C1      NOp   1
 Largest Abelian subgroup         C1      NOp   1
 Largest concise Abelian subgroup C1      NOp   1
                         Standard orientation:                         
 ---------------------------------------------------------------------
 Center     Atomic      Atomic             Coordinates (Angstroms)
 Number     Number       Type             X           Y           Z
 ---------------------------------------------------------------------
      1          6           0       -1.333065    0.424379   -0.000002
      2          6           0       -0.298896    1.366644   -0.000098
      3          6           0        1.034040    0.942271    0.000077
      4          6           0        1.333029   -0.424489   -0.000014
      5          6           0        0.299009   -1.366617   -0.000076
      6          6           0       -1.034117   -0.942190    0.000077
      7          1           0       -2.374079    0.755919    0.000068
      8          1           0       -0.532510    2.433918   -0.000068
      9          1           0        1.841703    1.677998    0.000180
     10          1           0        2.374122   -0.755762    0.000005
     11          1           0        0.532369   -2.433938   -0.000035
     12          1           0       -1.841605   -1.678122    0.000074
 ---------------------------------------------------------------------
 Rotational constants (GHZ):           5.6642243           5.6640507           2.8320687
 1\1\GINC-LSQC03\FOpt\RB3LYP\CC-pVDZ\C6H6\QINGCHUN\06-Aug-2020\0\\# opt
  freq b3lyp/cc-pVDZ\\cc-pVDZ\\0,1\C,-1.33191,-0.42799,0.000002\C,-0.29
 5191,-1.367449,0.000098\C,1.03659,-0.939465,-0.000077\C,1.331874,0.428
 1,0.000014\C,0.295304,1.367422,0.000076\C,-1.036666,0.939384,-0.000077
 \H,-2.372022,-0.76235,-0.000068\H,-0.525912,-2.435352,0.000068\H,1.846
 244,-1.673001,-0.00018\H,2.372065,0.762193,-0.000005\H,0.525771,2.4353
 72,0.000035\H,-1.846146,1.673125,-0.000074\\Version=ES64L-G16RevA.03\S
 tate=1-A\HF=-232.2629507\RMSD=6.817e-09\RMSF=1.798e-04\Dipole=0.000004
 4,-0.0000006,-0.0000535\Quadrupole=1.7471541,1.7464199,-3.493574,-0.00
 00664,-0.0000376,0.0000877\PG=C01 [X(C6H6)]\\@


 KINETICS       FACT
 ---------  =  -------
 MECHANISM     FICTION
 Job cpu time:       0 days  0 hours  1 minutes 20.1 seconds.
 Elapsed time:       0 days  0 hours  0 minutes 10.1 seconds.
 File lengths (MBytes):  RWF=     11 Int=      0 D2E=      0 Chk=      2 Scr=      1
 Normal termination of Gaussian 16 at Thu Aug  6 17:52:48 2020.
 Link1:  Proceeding to internal job step number  2.
 -------------------------------------------------------------------
 #N Geom=AllCheck Guess=TCheck SCRF=Check GenChk RB3LYP/CC-pVDZ Freq
 -------------------------------------------------------------------
 1/10=4,29=7,30=1,38=1,40=1/1,3;
 2/12=2,40=1/2;
 3/5=16,11=2,14=-4,25=1,30=1,70=2,71=2,74=-5,116=1,140=1/1,2,3;
 4/5=101/1;
 5/5=2,38=6,98=1/2;
 8/6=4,10=90,11=11/1;
 11/6=1,8=1,9=11,15=111,16=1/1,2,10;
 10/6=1/2;
 6/7=2,8=2,9=2,10=2,28=1/1;
 7/8=1,10=1,25=1/1,2,3,16;
 1/10=4,30=1/3;
 99//99;
 Structure from the checkpoint file:  "benzene.chk"
 -------
 cc-pVDZ
 -------
 Charge =  0 Multiplicity = 1
 Redundant internal coordinates found in file.  (old form).
 C,0,-1.33191,-0.42799,0.000002
 C,0,-0.295191,-1.367449,0.000098
 C,0,1.03659,-0.939465,-0.000077
 C,0,1.331874,0.4281,0.000014
 C,0,0.295304,1.367422,0.000076
 C,0,-1.036666,0.939384,-0.000077
 H,0,-2.372022,-0.76235,-0.000068
 H,0,-0.525912,-2.435352,0.000068
 H,0,1.846244,-1.673001,-0.00018
 H,0,2.372065,0.762193,-0.000005
 H,0,0.525771,2.435372,0.000035
 H,0,-1.846146,1.673125,-0.000074
 Recover connectivity data from disk.

 GradGradGradGradGradGradGradGradGradGradGradGradGradGradGradGradGradGrad
 Berny optimization.
 Initialization pass.
                           ----------------------------
                           !    Initial Parameters    !
                           ! (Angstroms and Degrees)  !
 --------------------------                            --------------------------
 ! Name  Definition              Value          Derivative Info.                !
 --------------------------------------------------------------------------------
 ! R1    R(1,2)                  1.3991         calculate D2E/DX2 analytically  !
 ! R2    R(1,6)                  1.3989         calculate D2E/DX2 analytically  !
 ! R3    R(1,7)                  1.0925         calculate D2E/DX2 analytically  !
 ! R4    R(2,3)                  1.3989         calculate D2E/DX2 analytically  !
 ! R5    R(2,8)                  1.0925         calculate D2E/DX2 analytically  !
 ! R6    R(3,4)                  1.3991         calculate D2E/DX2 analytically  !
 ! R7    R(3,9)                  1.0925         calculate D2E/DX2 analytically  !
 ! R8    R(4,5)                  1.3989         calculate D2E/DX2 analytically  !
 ! R9    R(4,10)                 1.0925         calculate D2E/DX2 analytically  !
 ! R10   R(5,6)                  1.3991         calculate D2E/DX2 analytically  !
 ! R11   R(5,11)                 1.0925         calculate D2E/DX2 analytically  !
 ! R12   R(6,12)                 1.0925         calculate D2E/DX2 analytically  !
 ! A1    A(2,1,6)              119.9981         calculate D2E/DX2 analytically  !
 ! A2    A(2,1,7)              119.9968         calculate D2E/DX2 analytically  !
 ! A3    A(6,1,7)              120.0051         calculate D2E/DX2 analytically  !
 ! A4    A(1,2,3)              120.0022         calculate D2E/DX2 analytically  !
 ! A5    A(1,2,8)              119.991          calculate D2E/DX2 analytically  !
 ! A6    A(3,2,8)              120.0068         calculate D2E/DX2 analytically  !
 ! A7    A(2,3,4)              119.9997         calculate D2E/DX2 analytically  !
 ! A8    A(2,3,9)              120.0084         calculate D2E/DX2 analytically  !
 ! A9    A(4,3,9)              119.9919         calculate D2E/DX2 analytically  !
 ! A10   A(3,4,5)              119.9981         calculate D2E/DX2 analytically  !
 ! A11   A(3,4,10)             119.9904         calculate D2E/DX2 analytically  !
 ! A12   A(5,4,10)             120.0115         calculate D2E/DX2 analytically  !
 ! A13   A(4,5,6)              120.0025         calculate D2E/DX2 analytically  !
 ! A14   A(4,5,11)             120.0045         calculate D2E/DX2 analytically  !
 ! A15   A(6,5,11)             119.993          calculate D2E/DX2 analytically  !
 ! A16   A(1,6,5)              119.9995         calculate D2E/DX2 analytically  !
 ! A17   A(1,6,12)             120.006          calculate D2E/DX2 analytically  !
 ! A18   A(5,6,12)             119.9946         calculate D2E/DX2 analytically  !
 ! D1    D(6,1,2,3)             -0.0091         calculate D2E/DX2 analytically  !
 ! D2    D(6,1,2,8)           -179.9944         calculate D2E/DX2 analytically  !
 ! D3    D(7,1,2,3)            179.9875         calculate D2E/DX2 analytically  !
 ! D4    D(7,1,2,8)              0.0021         calculate D2E/DX2 analytically  !
 ! D5    D(2,1,6,5)             -0.0064         calculate D2E/DX2 analytically  !
 ! D6    D(2,1,6,12)          -179.9953         calculate D2E/DX2 analytically  !
 ! D7    D(7,1,6,5)            179.997          calculate D2E/DX2 analytically  !
 ! D8    D(7,1,6,12)             0.0082         calculate D2E/DX2 analytically  !
 ! D9    D(1,2,3,4)              0.0171         calculate D2E/DX2 analytically  !
 ! D10   D(1,2,3,9)           -179.9892         calculate D2E/DX2 analytically  !
 ! D11   D(8,2,3,4)           -179.9975         calculate D2E/DX2 analytically  !
 ! D12   D(8,2,3,9)             -0.0039         calculate D2E/DX2 analytically  !
 ! D13   D(2,3,4,5)             -0.0096         calculate D2E/DX2 analytically  !
 ! D14   D(2,3,4,10)           179.9929         calculate D2E/DX2 analytically  !
 ! D15   D(9,3,4,5)            179.9967         calculate D2E/DX2 analytically  !
 ! D16   D(9,3,4,10)            -0.0008         calculate D2E/DX2 analytically  !
 ! D17   D(3,4,5,6)             -0.0059         calculate D2E/DX2 analytically  !
 ! D18   D(3,4,5,11)          -179.9932         calculate D2E/DX2 analytically  !
 ! D19   D(10,4,5,6)           179.9916         calculate D2E/DX2 analytically  !
 ! D20   D(10,4,5,11)            0.0043         calculate D2E/DX2 analytically  !
 ! D21   D(4,5,6,1)              0.0139         calculate D2E/DX2 analytically  !
 ! D22   D(4,5,6,12)          -179.9972         calculate D2E/DX2 analytically  !
 ! D23   D(11,5,6,1)          -179.9987         calculate D2E/DX2 analytically  !
 ! D24   D(11,5,6,12)           -0.0099         calculate D2E/DX2 analytically  !
 --------------------------------------------------------------------------------
 Trust Radius=3.00D-01 FncErr=1.00D-07 GrdErr=1.00D-07 EigMax=2.50D+02 EigMin=1.00D-04
 Number of steps in this run=      2 maximum allowed number of steps=      2.
 GradGradGradGradGradGradGradGradGradGradGradGradGradGradGradGradGradGrad

                          Input orientation:                          
 ---------------------------------------------------------------------
 Center     Atomic      Atomic             Coordinates (Angstroms)
 Number     Number       Type             X           Y           Z
 ---------------------------------------------------------------------
      1          6           0       -1.331910   -0.427990    0.000002
      2          6           0       -0.295191   -1.367449    0.000098
      3          6           0        1.036590   -0.939465   -0.000077
      4          6           0        1.331874    0.428100    0.000014
      5          6           0        0.295304    1.367422    0.000076
      6          6           0       -1.036666    0.939384   -0.000077
      7          1           0       -2.372022   -0.762350   -0.000068
      8          1           0       -0.525912   -2.435352    0.000068
      9          1           0        1.846244   -1.673001   -0.000180
     10          1           0        2.372065    0.762193   -0.000005
     11          1           0        0.525771    2.435372    0.000035
     12          1           0       -1.846146    1.673125   -0.000074
 ---------------------------------------------------------------------
                    Distance matrix (angstroms):
                    1          2          3          4          5
     1  C    0.000000
     2  C    1.399060   0.000000
     3  C    2.423097   1.398861   0.000000
     4  C    2.797970   2.423084   1.399081   0.000000
     5  C    2.423083   2.797893   2.423063   1.398858   0.000000
     6  C    1.398886   2.423069   2.797939   2.423096   1.399057
     7  H    1.092534   2.163186   3.413210   3.890503   3.413291
     8  H    2.163131   1.092542   2.163121   3.413316   3.890435
     9  H    3.413314   2.163124   1.092527   2.163146   3.413149
    10  H    3.890497   3.413155   2.163130   1.092527   2.163155
    11  H    3.413183   3.890428   3.413277   2.163086   1.092535
    12  H    2.163128   3.413290   3.890475   3.413195   2.163160
                    6          7          8          9         10
     6  C    0.000000
     7  H    2.163117   0.000000
     8  H    3.413168   2.491397   0.000000
     9  H    3.890466   4.315444   2.491647   0.000000
    10  H    3.413333   4.983030   4.315387   2.491316   0.000000
    11  H    2.163143   4.315395   4.982970   4.315365   2.491652
    12  H    1.092535   2.491603   4.315391   4.983001   4.315449
                   11         12
    11  H    0.000000
    12  H    2.491387   0.000000
 Stoichiometry    C6H6
 Framework group  C1[X(C6H6)]
 Deg. of freedom    30
 Full point group                 C1      NOp   1
 Largest Abelian subgroup         C1      NOp   1
 Largest concise Abelian subgroup C1      NOp   1
                         Standard orientation:                         
 ---------------------------------------------------------------------
 Center     Atomic      Atomic             Coordinates (Angstroms)
 Number     Number       Type             X           Y           Z
 ---------------------------------------------------------------------
      1          6           0       -1.333065    0.424379   -0.000002
      2          6           0       -0.298896    1.366644   -0.000098
      3          6           0        1.034040    0.942271    0.000077
      4          6           0        1.333029   -0.424489   -0.000014
      5          6           0        0.299009   -1.366617   -0.000076
      6          6           0       -1.034117   -0.942190    0.000077
      7          1           0       -2.374079    0.755919    0.000068
      8          1           0       -0.532510    2.433918   -0.000068
      9          1           0        1.841703    1.677998    0.000180
     10          1           0        2.374122   -0.755762    0.000005
     11          1           0        0.532369   -2.433938   -0.000035
     12          1           0       -1.841605   -1.678122    0.000074
 ---------------------------------------------------------------------
 Rotational constants (GHZ):           5.6642243           5.6640507           2.8320687
 Standard basis: CC-pVDZ (5D, 7F)
 There are   120 symmetry adapted cartesian basis functions of A   symmetry.
 There are   114 symmetry adapted basis functions of A   symmetry.
   114 basis functions,   240 primitive gaussians,   120 cartesian basis functions
    21 alpha electrons       21 beta electrons
       nuclear repulsion energy       202.7418106759 Hartrees.
 NAtoms=   12 NActive=   12 NUniq=   12 SFac= 1.00D+00 NAtFMM=   60 NAOKFM=F Big=F
 Integral buffers will be    131072 words long.
 Raffenetti 2 integral format.
 Two-electron integral symmetry is turned on.
 One-electron integrals computed using PRISM.
 NBasis=   114 RedAO= T EigKep=  3.73D-04  NBF=   114
 NBsUse=   114 1.00D-06 EigRej= -1.00D+00 NBFU=   114
 Initial guess from the checkpoint file:  "benzene.chk"
 B after Tr=     0.000000    0.000000    0.000000
         Rot=    1.000000    0.000000    0.000000    0.000000 Ang=   0.00 deg.
 Keep R1 ints in memory in canonical form, NReq=29057446.
 Requested convergence on RMS density matrix=1.00D-08 within 128 cycles.
 Requested convergence on MAX density matrix=1.00D-06.
 Requested convergence on             energy=1.00D-06.
 No special actions if energy rises.
 SCF Done:  E(RB3LYP) =  -232.262950724     A.U. after    1 cycles
            NFock=  1  Conv=0.22D-08     -V/T= 2.0076
 DoSCS=F DFT=T ScalE2(SS,OS)=  1.000000  1.000000
 Range of M.O.s used for correlation:     1   114
 NBasis=   114 NAE=    21 NBE=    21 NFC=     0 NFV=     0
 NROrb=    114 NOA=    21 NOB=    21 NVA=    93 NVB=    93

 **** Warning!!: The largest alpha MO coefficient is  0.11685990D+02

 Symmetrizing basis deriv contribution to polar:
 IMax=3 JMax=2 DiffMx= 0.00D+00
 G2DrvN: will do    13 centers at a time, making    1 passes.
 Calling FoFCou, ICntrl=  3107 FMM=F I1Cent=   0 AccDes= 0.00D+00.
 End of G2Drv F.D. properties file   721 does not exist.
 End of G2Drv F.D. properties file   722 does not exist.
 End of G2Drv F.D. properties file   788 does not exist.
          IDoAtm=111111111111
          Differentiating once with respect to electric field.
                with respect to dipole field.
          Differentiating once with respect to nuclear coordinates.
 Keep R1 ints in memory in canonical form, NReq=29041285.
          There are    39 degrees of freedom in the 1st order CPHF.  IDoFFX=6 NUNeed=     3.
     36 vectors produced by pass  0 Test12= 5.01D-15 2.56D-09 XBig12= 9.14D+01 5.80D+00.
 AX will form    36 AO Fock derivatives at one time.
     36 vectors produced by pass  1 Test12= 5.01D-15 2.56D-09 XBig12= 2.19D+01 1.45D+00.
     36 vectors produced by pass  2 Test12= 5.01D-15 2.56D-09 XBig12= 1.50D-01 8.91D-02.
     36 vectors produced by pass  3 Test12= 5.01D-15 2.56D-09 XBig12= 3.18D-04 2.88D-03.
     36 vectors produced by pass  4 Test12= 5.01D-15 2.56D-09 XBig12= 3.42D-07 1.17D-04.
     26 vectors produced by pass  5 Test12= 5.01D-15 2.56D-09 XBig12= 1.93D-10 4.48D-06.
      3 vectors produced by pass  6 Test12= 5.01D-15 2.56D-09 XBig12= 5.66D-14 7.13D-08.
 InvSVY:  IOpt=1 It=  1 EMax= 5.33D-15
 Solved reduced A of dimension   209 with    39 vectors.
 Isotropic polarizability for W=    0.000000       58.21 Bohr**3.
 End of Minotr F.D. properties file   721 does not exist.
 End of Minotr F.D. properties file   722 does not exist.
 End of Minotr F.D. properties file   788 does not exist.

 **********************************************************************

            Population analysis using the SCF density.

 **********************************************************************

 Orbital symmetries:
       Occupied  (A) (A) (A) (A) (A) (A) (A) (A) (A) (A) (A) (A)
                 (A) (A) (A) (A) (A) (A) (A) (A) (A)
       Virtual   (A) (A) (A) (A) (A) (A) (A) (A) (A) (A) (A) (A)
                 (A) (A) (A) (A) (A) (A) (A) (A) (A) (A) (A) (A)
                 (A) (A) (A) (A) (A) (A) (A) (A) (A) (A) (A) (A)
                 (A) (A) (A) (A) (A) (A) (A) (A) (A) (A) (A) (A)
                 (A) (A) (A) (A) (A) (A) (A) (A) (A) (A) (A) (A)
                 (A) (A) (A) (A) (A) (A) (A) (A) (A) (A) (A) (A)
                 (A) (A) (A) (A) (A) (A) (A) (A) (A) (A) (A) (A)
                 (A) (A) (A) (A) (A) (A) (A) (A) (A)
 The electronic state is 1-A.
 Alpha  occ. eigenvalues --  -10.19191 -10.19170 -10.19170 -10.19122 -10.19122
 Alpha  occ. eigenvalues --  -10.19100  -0.85207  -0.74493  -0.74492  -0.60136
 Alpha  occ. eigenvalues --   -0.60136  -0.52008  -0.46016  -0.44467  -0.42001
 Alpha  occ. eigenvalues --   -0.42000  -0.36575  -0.34351  -0.34349  -0.25321
 Alpha  occ. eigenvalues --   -0.25321
 Alpha virt. eigenvalues --   -0.00666  -0.00665   0.05728   0.09790   0.09790
 Alpha virt. eigenvalues --    0.13266   0.13266   0.15019   0.15165   0.27640
 Alpha virt. eigenvalues --    0.27640   0.29493   0.29495   0.40295   0.40753
 Alpha virt. eigenvalues --    0.46143   0.46506   0.50974   0.50975   0.51453
 Alpha virt. eigenvalues --    0.51453   0.51940   0.51940   0.52613   0.54058
 Alpha virt. eigenvalues --    0.59240   0.59241   0.64340   0.64340   0.64747
 Alpha virt. eigenvalues --    0.64748   0.66719   0.71861   0.78622   0.82741
 Alpha virt. eigenvalues --    0.85694   0.88255   0.88256   0.92414   0.99295
 Alpha virt. eigenvalues --    0.99296   1.00519   1.00520   1.01064   1.01067
 Alpha virt. eigenvalues --    1.05581   1.07100   1.07102   1.21122   1.27606
 Alpha virt. eigenvalues --    1.27608   1.45820   1.47463   1.47464   1.50891
 Alpha virt. eigenvalues --    1.53498   1.59817   1.59819   1.59896   1.59899
 Alpha virt. eigenvalues --    1.62755   1.67786   1.67789   1.68992   1.68996
 Alpha virt. eigenvalues --    1.72499   1.79264   1.79265   1.83379   1.83904
 Alpha virt. eigenvalues --    1.83905   1.84386   1.84390   1.88350   1.97328
 Alpha virt. eigenvalues --    1.97329   1.97785   1.97786   2.00707   2.19071
 Alpha virt. eigenvalues --    2.25054   2.34974   2.41536   2.41538   2.41940
 Alpha virt. eigenvalues --    2.41943   2.62610   2.62616   2.69302   2.78085
 Alpha virt. eigenvalues --    2.89483   2.89485   3.62584
          Condensed to atoms (all electrons):
               1          2          3          4          5          6
     1  C    4.738768   0.495623   0.002964  -0.072903   0.002963   0.495694
     2  C    0.495623   4.738766   0.495689   0.002962  -0.072911   0.002962
     3  C    0.002964   0.495689   4.738751   0.495634   0.002963  -0.072905
     4  C   -0.072903   0.002962   0.495634   4.738759   0.495688   0.002965
     5  C    0.002963  -0.072911   0.002963   0.495688   4.738756   0.495624
     6  C    0.495694   0.002962  -0.072905   0.002965   0.495624   4.738764
     7  H    0.389078  -0.050653   0.010083  -0.000199   0.010081  -0.050670
     8  H   -0.050654   0.389077  -0.050677   0.010080  -0.000199   0.010084
     9  H    0.010080  -0.050676   0.389076  -0.050649   0.010085  -0.000199
    10  H   -0.000199   0.010085  -0.050646   0.389078  -0.050678   0.010080
    11  H    0.010084  -0.000199   0.010081  -0.050678   0.389077  -0.050655
    12  H   -0.050673   0.010081  -0.000199   0.010083  -0.050652   0.389077
               7          8          9         10         11         12
     1  C    0.389078  -0.050654   0.010080  -0.000199   0.010084  -0.050673
     2  C   -0.050653   0.389077  -0.050676   0.010085  -0.000199   0.010081
     3  C    0.010083  -0.050677   0.389076  -0.050646   0.010081  -0.000199
     4  C   -0.000199   0.010080  -0.050649   0.389078  -0.050678   0.010083
     5  C    0.010081  -0.000199   0.010085  -0.050678   0.389077  -0.050652
     6  C   -0.050670   0.010084  -0.000199   0.010080  -0.050655   0.389077
     7  H    0.753504  -0.015749  -0.000305   0.000067  -0.000306  -0.015746
     8  H   -0.015749   0.753514  -0.015747  -0.000306   0.000067  -0.000306
     9  H   -0.000305  -0.015747   0.753513  -0.015750  -0.000306   0.000067
    10  H    0.000067  -0.000306  -0.015750   0.753508  -0.015747  -0.000305
    11  H   -0.000306   0.000067  -0.000306  -0.015747   0.753518  -0.015750
    12  H   -0.015746  -0.000306   0.000067  -0.000305  -0.015750   0.753508
 Mulliken charges:
               1
     1  C    0.029175
     2  C    0.029195
     3  C    0.029185
     4  C    0.029178
     5  C    0.029204
     6  C    0.029180
     7  H   -0.029184
     8  H   -0.029184
     9  H   -0.029189
    10  H   -0.029187
    11  H   -0.029187
    12  H   -0.029185
 Sum of Mulliken charges =   0.00000
 Mulliken charges with hydrogens summed into heavy atoms:
               1
     1  C   -0.000009
     2  C    0.000011
     3  C   -0.000004
     4  C   -0.000010
     5  C    0.000016
     6  C   -0.000005
 APT charges:
               1
     1  C   -0.018941
     2  C   -0.018897
     3  C   -0.018954
     4  C   -0.018942
     5  C   -0.018898
     6  C   -0.018952
     7  H    0.018938
     8  H    0.018920
     9  H    0.018933
    10  H    0.018939
    11  H    0.018921
    12  H    0.018933
 Sum of APT charges =   0.00000
 APT charges with hydrogens summed into heavy atoms:
               1
     1  C   -0.000003
     2  C    0.000023
     3  C   -0.000021
     4  C   -0.000003
     5  C    0.000022
     6  C   -0.000019
 Electronic spatial extent (au):  <R**2>=            461.2837
 Charge=              0.0000 electrons
 Dipole moment (field-independent basis, Debye):
    X=              0.0000    Y=              0.0000    Z=              0.0001  Tot=              0.0001
 Quadrupole moment (field-independent basis, Debye-Ang):
   XX=            -32.0269   YY=            -32.0279   ZZ=            -39.0759
   XY=              0.0001   XZ=              0.0001   YZ=              0.0001
 Traceless Quadrupole moment (field-independent basis, Debye-Ang):
   XX=              2.3500   YY=              2.3490   ZZ=             -4.6990
   XY=              0.0001   XZ=              0.0001   YZ=              0.0001
 Octapole moment (field-independent basis, Debye-Ang**2):
  XXX=              0.0025  YYY=             -0.0018  ZZZ=              0.0002  XYY=             -0.0024
  XXY=              0.0018  XXZ=              0.0009  XZZ=              0.0001  YZZ=              0.0000
  YYZ=              0.0003  XYZ=              0.0004
 Hexadecapole moment (field-independent basis, Debye-Ang**3):
 XXXX=           -278.4498 YYYY=           -278.4509 ZZZZ=            -42.9344 XXXY=              0.0005
 XXXZ=             -0.0001 YYYX=              0.0004 YYYZ=              0.0002 ZZZX=              0.0000
 ZZZY=              0.0001 XXYY=            -92.8173 XXZZ=            -61.9432 YYZZ=            -61.9418
 XXYZ=              0.0007 YYXZ=              0.0005 ZZXY=              0.0000
 N-N= 2.027418106759D+02 E-N=-9.432473690769D+02  KE= 2.305069031884D+02
  Exact polarizability:  75.076   0.000  75.075   0.000   0.000  24.473
 Approx polarizability: 124.395   0.000 124.391   0.000   0.000  38.003
 Calling FoFJK, ICntrl=    100127 FMM=F ISym2X=0 I1Cent= 0 IOpClX= 0 NMat=1 NMatS=1 NMatT=0.
 Full mass-weighted force constant matrix:
 Low frequencies ---   -0.0007    0.0009    0.0011   12.1930   12.7508   13.1379
 Low frequencies ---  414.3686  414.5206  617.8550
 Diagonal vibrational polarizability:
        0.2945139       0.2946041       4.2071614
 Harmonic frequencies (cm**-1), IR intensities (KM/Mole), Raman scattering
 activities (A**4/AMU), depolarization ratios for plane and unpolarized
 incident light, reduced masses (AMU), force constants (mDyne/A),
 and normal coordinates:
                      1                      2                      3
                      A                      A                      A
 Frequencies --    414.3685               414.5206               617.8550
 Red. masses --      2.8584                 2.8581                 6.0437
 Frc consts  --      0.2892                 0.2894                 1.3593
 IR Inten    --      0.0000                 0.0000                 0.0000
  Atom  AN      X      Y      Z        X      Y      Z        X      Y      Z
     1   6     0.00   0.00  -0.13     0.00   0.00  -0.20    -0.34   0.10   0.00
     2   6     0.00   0.00   0.24     0.00   0.00  -0.01    -0.08  -0.22   0.00
     3   6     0.00   0.00  -0.11     0.00   0.00   0.21    -0.03  -0.21   0.00
     4   6     0.00   0.00  -0.13     0.00   0.00  -0.20     0.34  -0.10   0.00
     5   6     0.00   0.00   0.24     0.00   0.00  -0.01     0.08   0.22   0.00
     6   6     0.00   0.00  -0.11     0.00   0.00   0.21     0.03   0.21   0.00
     7   1     0.00   0.00  -0.28     0.00   0.00  -0.44    -0.34   0.12   0.00
     8   1     0.00   0.00   0.53     0.00   0.00  -0.02     0.23  -0.15   0.00
     9   1     0.00   0.00  -0.24     0.00   0.00   0.47    -0.26   0.04   0.00
    10   1     0.00   0.00  -0.28     0.00   0.00  -0.45     0.34  -0.12   0.00
    11   1     0.00   0.00   0.53     0.00   0.00  -0.02    -0.23   0.15   0.00
    12   1     0.00   0.00  -0.24     0.00   0.00   0.47     0.26  -0.04   0.00
                      4                      5                      6
                      A                      A                      A
 Frequencies --    617.8667               690.2836               723.1212
 Red. masses --      6.0436                 1.0848                 3.5484
 Frc consts  --      1.3594                 0.3046                 1.0932
 IR Inten    --      0.0000                74.4923                 0.0000
  Atom  AN      X      Y      Z        X      Y      Z        X      Y      Z
     1   6    -0.03  -0.15   0.00     0.00   0.00  -0.03     0.00   0.00   0.20
     2   6     0.15  -0.28   0.00     0.00   0.00  -0.03     0.00   0.00  -0.20
     3   6     0.28   0.17   0.00     0.00   0.00  -0.03     0.00   0.00   0.20
     4   6     0.03   0.15   0.00     0.00   0.00  -0.03     0.00   0.00  -0.20
     5   6    -0.15   0.28   0.00     0.00   0.00  -0.03     0.00   0.00   0.20
     6   6    -0.28  -0.17   0.00     0.00   0.00  -0.03     0.00   0.00  -0.20
     7   1     0.09   0.21   0.00     0.00   0.00   0.41     0.00   0.00   0.36
     8   1    -0.06  -0.32   0.00     0.00   0.00   0.41     0.00   0.00  -0.36
     9   1     0.17   0.29   0.00     0.00   0.00   0.41     0.00   0.00   0.36
    10   1    -0.09  -0.21   0.00     0.00   0.00   0.41     0.00   0.00  -0.36
    11   1     0.06   0.32   0.00     0.00   0.00   0.41     0.00   0.00   0.36
    12   1    -0.17  -0.29   0.00     0.00   0.00   0.41     0.00   0.00  -0.36
                      7                      8                      9
                      A                      A                      A
 Frequencies --    865.4402               865.4741               986.4026
 Red. masses --      1.2484                 1.2484                 1.3780
 Frc consts  --      0.5509                 0.5509                 0.7899
 IR Inten    --      0.0000                 0.0000                 0.0000
  Atom  AN      X      Y      Z        X      Y      Z        X      Y      Z
     1   6     0.00   0.00  -0.08     0.00   0.00   0.02     0.00   0.00   0.09
     2   6     0.00   0.00  -0.06     0.00   0.00  -0.06     0.00   0.00  -0.10
     3   6     0.00   0.00   0.02     0.00   0.00  -0.08     0.00   0.00   0.01
     4   6     0.00   0.00   0.08     0.00   0.00  -0.02     0.00   0.00   0.09
     5   6     0.00   0.00   0.06     0.00   0.00   0.06     0.00   0.00  -0.10
     6   6     0.00   0.00  -0.02     0.00   0.00   0.08     0.00   0.00   0.01
     7   1     0.00   0.00   0.55     0.00   0.00  -0.16     0.00   0.00  -0.47
     8   1     0.00   0.00   0.41     0.00   0.00   0.40     0.00   0.00   0.51
     9   1     0.00   0.00  -0.14     0.00   0.00   0.55     0.00   0.00  -0.04
    10   1     0.00   0.00  -0.55     0.00   0.00   0.16     0.00   0.00  -0.47
    11   1     0.00   0.00  -0.41     0.00   0.00  -0.40     0.00   0.00   0.51
    12   1     0.00   0.00   0.14     0.00   0.00  -0.55     0.00   0.00  -0.04
                     10                     11                     12
                      A                      A                      A
 Frequencies --    986.4652              1013.5126              1018.5705
 Red. masses --      1.3780                 6.5802                 5.9914
 Frc consts  --      0.7900                 3.9824                 3.6624
 IR Inten    --      0.0000                 0.0000                 0.0000
  Atom  AN      X      Y      Z        X      Y      Z        X      Y      Z
     1   6     0.00   0.00   0.06     0.28  -0.09   0.00    -0.26   0.08   0.00
     2   6     0.00   0.00   0.05    -0.06   0.28   0.00    -0.06   0.27   0.00
     3   6     0.00   0.00  -0.11    -0.21  -0.20   0.00     0.20   0.19   0.00
     4   6     0.00   0.00   0.06     0.28  -0.09   0.00     0.26  -0.08   0.00
     5   6     0.00   0.00   0.05    -0.06   0.28   0.00     0.06  -0.27   0.00
     6   6     0.00   0.00  -0.11    -0.21  -0.20   0.00    -0.20  -0.18   0.00
     7   1     0.00   0.00  -0.32     0.27  -0.09   0.00    -0.29   0.09   0.00
     8   1     0.00   0.00  -0.25    -0.06   0.28   0.00    -0.06   0.29   0.00
     9   1     0.00   0.00   0.57    -0.21  -0.19   0.00     0.22   0.20   0.00
    10   1     0.00   0.00  -0.32     0.27  -0.09   0.00     0.29  -0.09   0.00
    11   1     0.00   0.00  -0.24    -0.06   0.28   0.00     0.06  -0.29   0.00
    12   1     0.00   0.00   0.57    -0.21  -0.19   0.00    -0.22  -0.20   0.00
                     13                     14                     15
                      A                      A                      A
 Frequencies --   1021.5747              1058.6445              1058.6758
 Red. masses --      1.2598                 1.6409                 1.6409
 Frc consts  --      0.7747                 1.0835                 1.0836
 IR Inten    --      0.0000                 4.4579                 4.4553
  Atom  AN      X      Y      Z        X      Y      Z        X      Y      Z
     1   6     0.00   0.00   0.06    -0.06   0.08   0.00    -0.09  -0.03   0.00
     2   6     0.00   0.00  -0.06     0.08  -0.01   0.00    -0.01   0.11   0.00
     3   6     0.00   0.00   0.06    -0.07  -0.09   0.00     0.07  -0.03   0.00
     4   6     0.00   0.00  -0.06    -0.06   0.08   0.00    -0.09  -0.03   0.00
     5   6     0.00   0.00   0.06     0.08  -0.01   0.00    -0.01   0.11   0.00
     6   6     0.00   0.00  -0.06    -0.07  -0.09   0.00     0.07  -0.03   0.00
     7   1     0.00   0.00  -0.40     0.03   0.39   0.00    -0.20  -0.35   0.00
     8   1     0.00   0.00   0.40     0.53   0.09   0.00     0.10   0.14   0.00
     9   1     0.00   0.00  -0.40     0.02  -0.19   0.00     0.38  -0.36   0.00
    10   1     0.00   0.00   0.40     0.03   0.39   0.00    -0.20  -0.35   0.00
    11   1     0.00   0.00  -0.40     0.53   0.09   0.00     0.10   0.14   0.00
    12   1     0.00   0.00   0.40     0.02  -0.19   0.00     0.38  -0.36   0.00
                     16                     17                     18
                      A                      A                      A
 Frequencies --   1161.6807              1186.2453              1186.2590
 Red. masses --      1.0631                 1.1227                 1.1227
 Frc consts  --      0.8453                 0.9308                 0.9308
 IR Inten    --      0.0000                 0.0000                 0.0000
  Atom  AN      X      Y      Z        X      Y      Z        X      Y      Z
     1   6    -0.01  -0.03   0.00    -0.01  -0.03   0.00     0.01   0.05   0.00
     2   6     0.03   0.01   0.00    -0.02  -0.01   0.00    -0.05  -0.01   0.00
     3   6    -0.02   0.02   0.00     0.04  -0.04   0.00     0.00  -0.01   0.00
     4   6    -0.01  -0.03   0.00     0.01   0.03   0.00    -0.01  -0.05   0.00
     5   6     0.03   0.01   0.00     0.02   0.01   0.00     0.05   0.01   0.00
     6   6    -0.02   0.02   0.00    -0.04   0.04   0.00     0.00   0.01   0.00
     7   1    -0.12  -0.39   0.00    -0.10  -0.31   0.00     0.14   0.45   0.00
     8   1     0.40   0.09   0.00    -0.24  -0.06   0.00    -0.51  -0.11   0.00
     9   1    -0.27   0.30   0.00     0.39  -0.42   0.00     0.03  -0.04   0.00
    10   1    -0.12  -0.39   0.00     0.10   0.31   0.00    -0.14  -0.45   0.00
    11   1     0.40   0.09   0.00     0.24   0.06   0.00     0.51   0.11   0.00
    12   1    -0.27   0.30   0.00    -0.39   0.42   0.00    -0.03   0.03   0.00
                     19                     20                     21
                      A                      A                      A
 Frequencies --   1355.6153              1363.9106              1506.3385
 Red. masses --      7.4124                 1.2484                 2.1035
 Frc consts  --      8.0257                 1.3682                 2.8122
 IR Inten    --      0.0000                 0.0000                 6.7320
  Atom  AN      X      Y      Z        X      Y      Z        X      Y      Z
     1   6    -0.09  -0.30   0.00    -0.02  -0.06   0.00     0.06  -0.10   0.00
     2   6     0.30   0.07   0.00    -0.06  -0.01   0.00    -0.15  -0.03   0.00
     3   6    -0.21   0.23   0.00    -0.04   0.04   0.00     0.01   0.11   0.00
     4   6    -0.09  -0.30   0.00     0.02   0.06   0.00     0.06  -0.10   0.00
     5   6     0.30   0.07   0.00     0.06   0.01   0.00    -0.15  -0.03   0.00
     6   6    -0.21   0.23   0.00     0.04  -0.04   0.00     0.01   0.11   0.00
     7   1     0.08   0.25   0.00     0.12   0.38   0.00     0.18   0.23   0.00
     8   1    -0.26  -0.06   0.00     0.39   0.09   0.00     0.52   0.12   0.00
     9   1     0.18  -0.20   0.00     0.27  -0.30   0.00     0.25  -0.12   0.00
    10   1     0.08   0.25   0.00    -0.12  -0.38   0.00     0.18   0.23   0.00
    11   1    -0.26  -0.06   0.00    -0.39  -0.09   0.00     0.52   0.12   0.00
    12   1     0.18  -0.19   0.00    -0.27   0.30   0.00     0.25  -0.12   0.00
                     22                     23                     24
                      A                      A                      A
 Frequencies --   1506.3619              1644.7827              1644.8861
 Red. masses --      2.1036                 5.7063                 5.7074
 Frc consts  --      2.8123                 9.0954                 9.0983
 IR Inten    --      6.7386                 0.0000                 0.0000
  Atom  AN      X      Y      Z        X      Y      Z        X      Y      Z
     1   6    -0.09  -0.11   0.00     0.04   0.32   0.00    -0.18  -0.08   0.00
     2   6    -0.02   0.10   0.00    -0.01  -0.16   0.00     0.34   0.05   0.00
     3   6     0.13  -0.07   0.00    -0.12   0.26   0.00    -0.23   0.07   0.00
     4   6    -0.09  -0.11   0.00    -0.04  -0.32   0.00     0.18   0.08   0.00
     5   6    -0.02   0.10   0.00     0.01   0.16   0.00    -0.34  -0.05   0.00
     6   6     0.13  -0.07   0.00     0.12  -0.27   0.00     0.23  -0.07   0.00
     7   1     0.08   0.46   0.00    -0.18  -0.33   0.00    -0.11   0.19   0.00
     8   1    -0.04   0.12   0.00     0.09  -0.16   0.00    -0.38  -0.11   0.00
     9   1    -0.27   0.38   0.00     0.29  -0.16   0.00     0.06  -0.27   0.00
    10   1     0.08   0.45   0.00     0.17   0.33   0.00     0.10  -0.20   0.00
    11   1    -0.04   0.12   0.00    -0.09   0.16   0.00     0.38   0.11   0.00
    12   1    -0.27   0.39   0.00    -0.29   0.17   0.00    -0.06   0.27   0.00
                     25                     26                     27
                      A                      A                      A
 Frequencies --   3165.0497              3175.1968              3175.3145
 Red. masses --      1.0827                 1.0873                 1.0873
 Frc consts  --      6.3904                 6.4586                 6.4591
 IR Inten    --      0.0004                 0.0001                 0.0001
  Atom  AN      X      Y      Z        X      Y      Z        X      Y      Z
     1   6    -0.03   0.01   0.00    -0.02   0.01   0.00     0.04  -0.01   0.00
     2   6     0.01  -0.03   0.00     0.01  -0.05   0.00     0.00   0.00   0.00
     3   6     0.02   0.02   0.00     0.02   0.02   0.00     0.03   0.03   0.00
     4   6    -0.03   0.01   0.00     0.02  -0.01   0.00    -0.04   0.01   0.00
     5   6     0.01  -0.03   0.00    -0.01   0.05   0.00     0.00   0.00   0.00
     6   6     0.02   0.02   0.00    -0.02  -0.02   0.00    -0.03  -0.03   0.00
     7   1     0.39  -0.12   0.00     0.26  -0.08   0.00    -0.48   0.15   0.00
     8   1    -0.09   0.40   0.00    -0.12   0.56   0.00     0.00  -0.01   0.00
     9   1    -0.30  -0.27   0.00    -0.22  -0.20   0.00    -0.36  -0.33   0.00
    10   1     0.39  -0.12   0.00    -0.26   0.08   0.00     0.48  -0.15   0.00
    11   1    -0.09   0.40   0.00     0.12  -0.56   0.00    -0.01   0.02   0.00
    12   1    -0.30  -0.27   0.00     0.22   0.20   0.00     0.36   0.33   0.00
                     28                     29                     30
                      A                      A                      A
 Frequencies --   3191.5459              3191.6614              3202.3218
 Red. masses --      1.0958                 1.0958                 1.1005
 Frc consts  --      6.5763                 6.5768                 6.6493
 IR Inten    --     40.7658                40.7420                 0.0004
  Atom  AN      X      Y      Z        X      Y      Z        X      Y      Z
     1   6     0.02   0.00   0.00    -0.04   0.02   0.00    -0.04   0.01   0.00
     2   6     0.01  -0.05   0.00     0.00   0.00   0.00    -0.01   0.04   0.00
     3   6    -0.02  -0.02   0.00    -0.03  -0.03   0.00     0.03   0.03   0.00
     4   6     0.02   0.00   0.00    -0.04   0.02   0.00     0.04  -0.01   0.00
     5   6     0.01  -0.05   0.00     0.00   0.00   0.00     0.01  -0.04   0.00
     6   6    -0.02  -0.02   0.00    -0.03  -0.03   0.00    -0.03  -0.03   0.00
     7   1    -0.26   0.08   0.00     0.49  -0.16   0.00     0.39  -0.12   0.00
     8   1    -0.12   0.56   0.00     0.00  -0.02   0.00     0.09  -0.39   0.00
     9   1     0.23   0.21   0.00     0.36   0.33   0.00    -0.30  -0.28   0.00
    10   1    -0.26   0.08   0.00     0.48  -0.16   0.00    -0.39   0.12   0.00
    11   1    -0.12   0.56   0.00     0.00  -0.02   0.00    -0.09   0.40   0.00
    12   1     0.23   0.20   0.00     0.36   0.33   0.00     0.30   0.27   0.00

 -------------------
 - Thermochemistry -
 -------------------
 Temperature   298.150 Kelvin.  Pressure   1.00000 Atm.
 Atom     1 has atomic number  6 and mass  12.00000
 Atom     2 has atomic number  6 and mass  12.00000
 Atom     3 has atomic number  6 and mass  12.00000
 Atom     4 has atomic number  6 and mass  12.00000
 Atom     5 has atomic number  6 and mass  12.00000
 Atom     6 has atomic number  6 and mass  12.00000
 Atom     7 has atomic number  1 and mass   1.00783
 Atom     8 has atomic number  1 and mass   1.00783
 Atom     9 has atomic number  1 and mass   1.00783
 Atom    10 has atomic number  1 and mass   1.00783
 Atom    11 has atomic number  1 and mass   1.00783
 Atom    12 has atomic number  1 and mass   1.00783
 Molecular mass:    78.04695 amu.
 Principal axes and moments of inertia in atomic units:
                           1         2         3
     Eigenvalues --   318.62107 318.63084 637.25190
           X            0.99944   0.03335   0.00000
           Y           -0.03335   0.99944   0.00000
           Z            0.00000   0.00000   1.00000
 This molecule is an asymmetric top.
 Rotational symmetry number  1.
 Rotational temperatures (Kelvin)      0.27184     0.27183     0.13592
 Rotational constants (GHZ):           5.66422     5.66405     2.83207
 Zero-point vibrational energy     263237.9 (Joules/Mol)
                                   62.91538 (Kcal/Mol)
 Warning -- explicit consideration of   4 degrees of freedom as
           vibrations may cause significant error
 Vibrational temperatures:    596.18   596.40   888.96   888.97   993.16
          (Kelvin)           1040.41  1245.18  1245.22  1419.21  1419.30
                             1458.22  1465.50  1469.82  1523.15  1523.20
                             1671.40  1706.74  1706.76  1950.43  1962.36
                             2167.29  2167.32  2366.48  2366.62  4553.80
                             4568.40  4568.57  4591.92  4592.09  4607.43
 
 Zero-point correction=                           0.100262 (Hartree/Particle)
 Thermal correction to Energy=                    0.104657
 Thermal correction to Enthalpy=                  0.105601
 Thermal correction to Gibbs Free Energy=         0.072792
 Sum of electronic and zero-point Energies=           -232.162689
 Sum of electronic and thermal Energies=              -232.158294
 Sum of electronic and thermal Enthalpies=            -232.157350
 Sum of electronic and thermal Free Energies=         -232.190159
 
                     E (Thermal)             CV                S
                      KCal/Mol        Cal/Mol-Kelvin    Cal/Mol-Kelvin
 Total                   65.673             17.191             69.053
[...]
   D15        3.14153   0.00000   0.00000   0.00006   0.00006   3.14159
   D16       -0.00001   0.00000   0.00000   0.00001   0.00001   0.00000
   D17       -0.00010   0.00000   0.00000   0.00010   0.00010   0.00000
   D18       -3.14147   0.00000   0.00000  -0.00012  -0.00012   3.14159
   D19        3.14145   0.00000   0.00000   0.00015   0.00015  -3.14159
   D20        0.00007   0.00000   0.00000  -0.00007  -0.00007   0.00000
   D21        0.00024  -0.00001   0.00000  -0.00024  -0.00024   0.00000
   D22       -3.14154   0.00000   0.00000  -0.00005  -0.00005   3.14159
   D23       -3.14157   0.00000   0.00000  -0.00002  -0.00002   3.14159
   D24       -0.00017   0.00000   0.00000   0.00017   0.00017   0.00000
         Item               Value     Threshold  Converged?
 Maximum Force            0.000342     0.000450     YES
 RMS     Force            0.000106     0.000300     YES
 Maximum Displacement     0.000603     0.001800     YES
 RMS     Displacement     0.000225     0.001200     YES
 Predicted change in Energy=-6.695275D-07
 Optimization completed.
    -- Stationary point found.
                           ----------------------------
                           !   Optimized Parameters   !
                           ! (Angstroms and Degrees)  !
 --------------------------                            --------------------------
 ! Name  Definition              Value          Derivative Info.                !
 --------------------------------------------------------------------------------
 ! R1    R(1,2)                  1.3991         -DE/DX =   -0.0003              !
 ! R2    R(1,6)                  1.3989         -DE/DX =   -0.0002              !
 ! R3    R(1,7)                  1.0925         -DE/DX =    0.0001              !
 ! R4    R(2,3)                  1.3989         -DE/DX =   -0.0002              !
 ! R5    R(2,8)                  1.0925         -DE/DX =    0.0001              !
 ! R6    R(3,4)                  1.3991         -DE/DX =   -0.0003              !
 ! R7    R(3,9)                  1.0925         -DE/DX =    0.0001              !
 ! R8    R(4,5)                  1.3989         -DE/DX =   -0.0002              !
 ! R9    R(4,10)                 1.0925         -DE/DX =    0.0001              !
 ! R10   R(5,6)                  1.3991         -DE/DX =   -0.0003              !
 ! R11   R(5,11)                 1.0925         -DE/DX =    0.0001              !
 ! R12   R(6,12)                 1.0925         -DE/DX =    0.0001              !
 ! A1    A(2,1,6)              119.9981         -DE/DX =    0.0                 !
 ! A2    A(2,1,7)              119.9968         -DE/DX =    0.0                 !
 ! A3    A(6,1,7)              120.0051         -DE/DX =    0.0                 !
 ! A4    A(1,2,3)              120.0022         -DE/DX =    0.0                 !
 ! A5    A(1,2,8)              119.991          -DE/DX =    0.0                 !
 ! A6    A(3,2,8)              120.0068         -DE/DX =    0.0                 !
 ! A7    A(2,3,4)              119.9997         -DE/DX =    0.0                 !
 ! A8    A(2,3,9)              120.0084         -DE/DX =    0.0                 !
 ! A9    A(4,3,9)              119.9919         -DE/DX =    0.0                 !
 ! A10   A(3,4,5)              119.9981         -DE/DX =    0.0                 !
 ! A11   A(3,4,10)             119.9904         -DE/DX =    0.0                 !
 ! A12   A(5,4,10)             120.0115         -DE/DX =    0.0                 !
 ! A13   A(4,5,6)              120.0025         -DE/DX =    0.0                 !
 ! A14   A(4,5,11)             120.0045         -DE/DX =    0.0                 !
 ! A15   A(6,5,11)             119.993          -DE/DX =    0.0                 !
 ! A16   A(1,6,5)              119.9995         -DE/DX =    0.0                 !
 ! A17   A(1,6,12)             120.006          -DE/DX =    0.0                 !
 ! A18   A(5,6,12)             119.9946         -DE/DX =    0.0                 !
 ! D1    D(6,1,2,3)             -0.0091         -DE/DX =    0.0                 !
 ! D2    D(6,1,2,8)            180.0056         -DE/DX =    0.0                 !
 ! D3    D(7,1,2,3)           -180.0125         -DE/DX =    0.0                 !
 ! D4    D(7,1,2,8)              0.0021         -DE/DX =    0.0                 !
 ! D5    D(2,1,6,5)             -0.0064         -DE/DX =    0.0                 !
 ! D6    D(2,1,6,12)           180.0047         -DE/DX =    0.0                 !
 ! D7    D(7,1,6,5)           -180.003          -DE/DX =    0.0                 !
 ! D8    D(7,1,6,12)             0.0082         -DE/DX =    0.0                 !
 ! D9    D(1,2,3,4)              0.0171         -DE/DX =    0.0                 !
 ! D10   D(1,2,3,9)            180.0108         -DE/DX =    0.0                 !
 ! D11   D(8,2,3,4)            180.0025         -DE/DX =    0.0                 !
 ! D12   D(8,2,3,9)             -0.0039         -DE/DX =    0.0                 !
 ! D13   D(2,3,4,5)             -0.0096         -DE/DX =    0.0                 !
 ! D14   D(2,3,4,10)          -180.0071         -DE/DX =    0.0                 !
 ! D15   D(9,3,4,5)            179.9967         -DE/DX =    0.0                 !
 ! D16   D(9,3,4,10)            -0.0008         -DE/DX =    0.0                 !
 ! D17   D(3,4,5,6)             -0.0059         -DE/DX =    0.0                 !
 ! D18   D(3,4,5,11)           180.0068         -DE/DX =    0.0                 !
 ! D19   D(10,4,5,6)          -180.0084         -DE/DX =    0.0                 !
 ! D20   D(10,4,5,11)            0.0043         -DE/DX =    0.0                 !
 ! D21   D(4,5,6,1)              0.0139         -DE/DX =    0.0                 !
 ! D22   D(4,5,6,12)           180.0028         -DE/DX =    0.0                 !
 ! D23   D(11,5,6,1)           180.0013         -DE/DX =    0.0                 !
 ! D24   D(11,5,6,12)           -0.0099         -DE/DX =    0.0                 !
 --------------------------------------------------------------------------------
 GradGradGradGradGradGradGradGradGradGradGradGradGradGradGradGradGradGrad


 ----------------------------------------------------------------------

 Electric dipole moment (input orientation):
 (Debye = 10**-18 statcoulomb cm , SI units = C m)
                  (au)            (Debye)         (10**-30 SI)
   Tot        0.534566D-04      0.135873D-03      0.453224D-03
   x          0.000000D+00      0.000000D+00      0.000000D+00
   y          0.000000D+00      0.000000D+00      0.000000D+00
   z         -0.534566D-04     -0.135873D-03     -0.453224D-03

 Dipole polarizability, Alpha (input orientation).
 (esu units = cm**3 , SI units = C**2 m**2 J**-1)
 Alpha(0;0):
               (au)            (10**-24 esu)      (10**-40 SI)
   iso        0.582080D+02      0.862554D+01      0.959721D+01
   aniso      0.506033D+02      0.749863D+01      0.834335D+01
   xx         0.750761D+02      0.111251D+02      0.123784D+02
   yx        -0.262079D-04     -0.388361D-05     -0.432110D-05
   yy         0.750754D+02      0.111250D+02      0.123783D+02
   zx        -0.319454D-04     -0.473382D-05     -0.526708D-05
   zy         0.552041D-04      0.818041D-05      0.910193D-05
   zz         0.244725D+02      0.362645D+01      0.403497D+01

 ----------------------------------------------------------------------

 Dipole orientation:
     6         -2.50763808          0.80974595         -0.21261908
     6         -0.55670208          2.58422071         -0.02558581
     6          1.95066459          1.77448324          0.18733773
     6          2.50757304         -0.80995351          0.21258113
     6          0.55694352         -2.58416680          0.02527739
     6         -1.95083315         -1.77433275         -0.18705900
     1         -4.46590879          1.44234483         -0.37852004
     1         -0.99183682          4.60235429         -0.04539825
     1          3.47427204          3.16000208          0.33373875
     1          4.46597756         -1.44204943          0.37866724
     1          0.99158841         -4.60239022          0.04518073
     1         -3.47412940         -3.16024080         -0.33324655

 Electric dipole moment (dipole orientation):
 (Debye = 10**-18 statcoulomb cm , SI units = C m)
                  (au)            (Debye)         (10**-30 SI)
   Tot        0.536640D-04      0.136400D-03      0.454983D-03
   x          0.000000D+00      0.000000D+00      0.000000D+00
   y          0.000000D+00      0.000000D+00      0.000000D+00
   z          0.536640D-04      0.136400D-03      0.454983D-03

 Dipole polarizability, Alpha (dipole orientation).
 (esu units = cm**3 , SI units = C**2 m**2 J**-1)
 Alpha(0;0):
               (au)            (10**-24 esu)      (10**-40 SI)
   iso        0.582080D+02      0.862554D+01      0.959721D+01
   aniso      0.506033D+02      0.749863D+01      0.834335D+01
   xx         0.746898D+02      0.110679D+02      0.123147D+02
   yx        -0.399139D-01     -0.591463D-02     -0.658091D-02
   yy         0.750713D+02      0.111244D+02      0.123776D+02
   zx         0.440447D+01      0.652676D+00      0.726200D+00
   zy         0.455335D+00      0.674737D-01      0.750746D-01
   zz         0.248630D+02      0.368431D+01      0.409935D+01

 ----------------------------------------------------------------------
 1\1\GINC-LSQC03\Freq\RB3LYP\CC-pVDZ\C6H6\QINGCHUN\06-Aug-2020\0\\#N Ge
 om=AllCheck Guess=TCheck SCRF=Check GenChk RB3LYP/CC-pVDZ Freq\\cc-pVD
 Z\\0,1\C,-1.33191,-0.42799,0.000002\C,-0.295191,-1.367449,0.000098\C,1
 .03659,-0.939465,-0.000077\C,1.331874,0.4281,0.000014\C,0.295304,1.367
 422,0.000076\C,-1.036666,0.939384,-0.000077\H,-2.372022,-0.76235,-0.00
 0068\H,-0.525912,-2.435352,0.000068\H,1.846244,-1.673001,-0.00018\H,2.
 372065,0.762193,-0.000005\H,0.525771,2.435372,0.000035\H,-1.846146,1.6
 73125,-0.000074\\Version=ES64L-G16RevA.03\State=1-A\HF=-232.2629507\RM
 SD=2.181e-09\RMSF=1.798e-04\ZeroPoint=0.100262\Thermal=0.1046567\Dipol
 e=0.0000047,-0.0000005,-0.0000535\DipoleDeriv=0.0992812,0.0525324,0.00
 00192,0.052491,-0.0472928,-0.0000029,0.0000419,-0.0000068,-0.1088107,-
 0.0560822,0.037217,-0.0000073,0.0371954,0.1082091,-0.0000234,0.00001,0
 .0000556,-0.1088185,0.0348136,-0.0897575,-0.00004,-0.0896976,0.0171372
 ,0.0000309,-0.0000058,-0.0000063,-0.1088136,0.0992674,0.0525594,-0.000
 0012,0.052484,-0.0472838,0.0000041,0.0000008,0.0000046,-0.1088102,-0.0
 560735,0.0372153,0.0000073,0.0372279,0.1081954,0.0000118,-0.0000048,-0
 .0000731,-0.1088173,0.034831,-0.0897439,0.0000194,-0.0897166,0.0171284
 ,-0.0000148,-0.0000523,0.0000503,-0.1088144,-0.0965344,-0.0505701,-0.0
 000056,-0.0505856,0.0445332,0.0000011,-0.0000231,0.0000125,0.108816,0.
 0530429,-0.0358512,0.0000045,-0.0358187,-0.1050943,0.0000117,-0.000004
 6,-0.0000542,0.1088123,-0.0345444,0.0863875,0.0000171,0.08636,-0.01747
 ,-0.0000137,-0.0000007,0.0000129,0.1088139,-0.096556,-0.0505643,0.0000
 021,-0.0505227,0.0445574,-0.0000033,0.000015,-0.0000097,0.1088163,0.05
 30589,-0.0357897,-0.0000036,-0.0358101,-0.1051084,-0.00001,-0.0000003,
 0.0000453,0.1088122,-0.0345045,0.0863651,-0.000012,0.0863929,-0.017511
 5,0.0000085,0.0000239,-0.000031,0.1088139\Polar=75.0761222,-0.0000262,
 75.0754492,-0.0000319,0.0000552,24.4725111\Quadrupole=1.7471542,1.7464
 173,-3.4935715,-0.0000667,-0.0000376,0.0000877\PG=C01 [X(C6H6)]\NImag=
 0\\0.73233702,0.02106414,0.67429253,0.00003252,-0.00002662,0.13646723,
 -0.24389192,0.07395805,-0.00001914,0.67078591,0.14030189,-0.22274576,0
 .00001520,0.01499108,0.73580545,-0.00001376,0.00001050,-0.06422498,-0.
 00002068,-0.00001524,0.13645406,-0.05193950,0.04944078,0.00000324,-0.3
 2124617,-0.09601710,0.00003506,0.70715323,0.00085953,0.05908510,-0.000
 00155,-0.02968149,-0.14583189,0.00000828,-0.03563724,0.69949536,-0.000
 00150,0.00000090,0.00822903,0.00003875,0.00000935,-0.06419045,-0.00005
 711,0.00002867,0.13647100,-0.00747229,0.01993912,-0.00000113,0.0095543
 3,-0.03636560,-0.00000279,-0.13529290,-0.07759480,-0.00000044,0.732643
 02,0.01993481,-0.06307562,0.00000326,-0.08495103,-0.00241442,-0.000000
 50,-0.01124615,-0.33134126,-0.00002027,0.02066164,0.67401656,0.0000010
 4,-0.00000326,-0.00773365,0.00000058,0.00000458,0.00823731,-0.00000146
 ,-0.00002065,-0.06425081,-0.00001501,0.00002966,0.13646479,0.00955004,
 -0.08495153,0.00000058,-0.06643625,0.01411387,0.00000178,0.05311316,0.
 05979818,-0.00000201,-0.24414792,0.07420985,0.00001185,0.67059225,-0.0
 3636618,-0.00241030,-0.00000434,0.01411821,-0.00410923,-0.00000024,0.0
 1121126,-0.04598964,-0.00000213,0.14054838,-0.22295235,-0.00001026,0.0
 1454339,0.73602699,0.00000230,-0.00000055,0.00823722,-0.00000166,0.000
 00078,-0.00774358,0.00000073,-0.00000200,0.00823881,0.00000800,-0.0000
 0549,-0.06418940,0.00002047,0.00000858,0.13645151,-0.13529533,-0.01134
 972,0.00000019,0.05311068,0.01121431,-0.00000099,-0.03195441,-0.034045
 93,0.00000086,-0.05194131,0.04943749,-0.00000216,-0.32082465,-0.095877
 85,-0.00003008,0.70665779,-0.07769111,-0.33178409,0.00001700,0.0598010
 5,-0.04598652,0.00000079,-0.03404976,-0.03859657,0.00000145,0.00085593
 ,0.05908660,0.00000247,-0.02953630,-0.14580434,-0.00000733,-0.03567642
 ,0.69996963,0.00000166,0.00001453,-0.06421555,0.00000046,0.00000231,0.
 00823860,-0.00000125,-0.00000105,-0.00773179,0.00000127,0.00000076,0.0
 0822909,-0.00003065,-0.00000958,-0.06422506,0.00003170,-0.00000731,0.1
 3647293,-0.31048167,-0.08119056,-0.00001768,-0.01713991,-0.01072776,-0
 .00000030,-0.00133250,0.00435786,-0.00000099,0.00058627,0.00059518,0.0
 0000007,0.00192585,-0.00128561,-0.00000053,-0.00311327,0.00132168,-0.0
 0000072,0.32898225,-0.08119177,-0.08402516,-0.00000190,0.02089335,0.01
 000630,0.00000043,0.00326038,-0.00235836,0.00000055,0.00059517,-0.0010
 7531,0.00000002,-0.00018825,-0.00561581,0.00000095,-0.03029923,-0.0040
 2069,-0.00000194,0.08751585,0.08487810,-0.00001999,-0.00000217,-0.0369
 1079,-0.00000012,-0.00000244,0.00322454,-0.00000096,-0.00000025,0.0071
 8474,-0.00000038,0.00000167,-0.00067960,0.00000098,0.00000042,0.007189
 94,0.00000163,-0.00000041,0.00322649,0.00001897,0.00000303,0.02560368,
 0.00875270,0.02344896,0.00000011,-0.07034161,-0.05750617,0.00000085,-0
 .00118205,-0.03010866,-0.00000128,-0.00539872,-0.00091095,0.00000125,-
 0.00117610,0.00042160,0.,-0.00309336,0.00308614,-0.00000014,0.00102255
 ,-0.00048863,0.,0.07013057,-0.00817354,-0.01589053,-0.00000108,-0.0575
 0313,-0.32411568,-0.00000411,0.00151250,-0.00594911,-0.00000131,-0.002
 00786,0.00170868,0.00000033,0.00042182,0.00068733,-0.00000008,0.004182
 28,-0.00060118,0.00000021,0.00014977,0.00098945,0.00000013,0.06198338,
 0.34368655,-0.00000099,0.00000343,0.00322654,0.00000015,-0.00001182,-0
 .03691623,0.00000016,0.00000336,0.00322867,0.00000202,0.00000025,0.007
 19108,0.00000091,-0.00000100,-0.00067979,-0.00000221,-0.00000047,0.007
 18473,0.00000043,-0.00000016,-0.00404773,-0.00000010,0.00000561,0.0256
 0372,-0.00436862,-0.00344562,0.00000164,-0.01634006,0.02265998,0.00000
 099,-0.21096673,0.13866202,0.00002301,0.00762136,-0.00659606,-0.000000
 93,0.00119584,-0.00180006,0.00000079,-0.00014308,-0.00101606,-0.000000
 11,-0.00097474,0.00108807,-0.00000021,0.00114531,-0.00022019,-0.000000
 55,0.22170760,-0.00234834,0.00067853,-0.00000022,-0.00896113,0.0092083
 2,0.00000106,0.13866244,-0.18354653,-0.00001856,0.02502524,-0.01475884
 ,-0.00000186,-0.00289669,-0.00488869,-0.00000075,-0.00101843,-0.000345
 44,0.00000010,-0.00050113,0.00032122,-0.00000023,0.00041947,0.00086742
 ,0.00000021,-0.14946589,0.19216208,0.00000130,0.00000099,0.00719066,0.
 00000184,-0.00000330,0.00322609,0.00002080,-0.00001617,-0.03691549,0.0
 0000164,-0.00000199,0.00322704,-0.00000158,-0.00000065,0.00718457,0.,0
 .00000112,-0.00067946,0.00000020,-0.00000036,0.00025562,-0.00000031,0.
 00000017,-0.00405301,-0.00002404,0.00001994,0.02560642,0.00058605,0.00
 059503,0.00000001,0.00192477,-0.00128664,-0.00000002,-0.00311695,0.001
 32185,0.00000047,-0.31053480,-0.08113940,0.00000579,-0.01713669,-0.010
 72625,-0.00000006,-0.00132991,0.00435708,0.00000063,-0.00006865,-0.000
 07277,-0.00000006,-0.00025716,0.00008656,0.00000004,0.00085126,-0.0002
 4881,-0.00000016,0.32903401,0.00059595,-0.00107512,-0.00000003,-0.0001
 8955,-0.00561789,-0.00000112,-0.03030060,-0.00402230,0.00000151,-0.081
 13666,-0.08398411,-0.00000160,0.02089414,0.01000812,-0.00000010,0.0032
 5941,-0.00235770,-0.00000065,-0.00007259,0.00013419,0.00000008,-0.0015
 0266,-0.00039669,0.00000037,0.00038966,0.00116216,0.00000037,0.0874645
 6,0.08483852,0.00000077,-0.00000199,-0.00067959,-0.00000160,-0.0000005
 7,0.00718406,-0.00000056,0.00000220,0.00322495,0.00000703,-0.00000311,
 -0.03690935,-0.00000015,0.00000210,0.00322642,0.00000119,0.00000070,0.
 00719069,0.00000012,-0.00000010,-0.00124940,-0.00000016,0.,0.00025559,
 -0.00000051,0.00000028,-0.00404883,-0.00000621,0.00000062,0.02560205,-
 0.00540062,-0.00091232,-0.00000122,-0.00117596,0.00042241,0.,-0.003092
 51,0.00308511,0.00000018,0.00875436,0.02345002,0.,-0.07031375,-0.05744
 834,-0.00000044,-0.00118337,-0.03010925,0.00000106,-0.00025710,-0.0015
 0265,0.00000010,0.00014649,-0.00005143,0.00000007,0.00025136,0.0012091
 7,0.00000020,0.00102276,-0.00048977,-0.00000004,0.07010360,-0.00200887
 ,0.00170740,-0.00000007,0.00042177,0.00068716,0.,0.00418142,-0.0005989
 6,-0.00000008,-0.00817228,-0.01588814,0.00000086,-0.05744834,-0.324157
 52,0.00000682,0.00151301,-0.00595223,0.00000123,0.00008657,-0.00039671
 ,0.00000005,-0.00005161,-0.00008099,0.,-0.00038012,-0.00090524,-0.0000
 0009,0.00014986,0.00098963,-0.00000021,0.06192847,0.34372794,-0.000001
 62,-0.00000002,0.00718518,-0.00000075,0.00000060,-0.00067981,0.0000016
 0,0.00000034,0.00719079,0.00000115,-0.00000308,0.00322883,0.00000096,0
 .00001412,-0.03691470,-0.00000103,-0.00000390,0.00322682,-0.00000008,-
 0.00000022,0.00025561,-0.00000006,-0.00000003,-0.00124923,0.00000009,-
 0.00000006,0.00025564,-0.00000018,0.00000026,-0.00405223,-0.00000022,-
 0.00000821,0.02560175,0.00762412,-0.00659632,0.00000089,0.00119620,-0.
 00180028,-0.00000015,-0.00014267,-0.00101644,0.00000005,-0.00437140,-0
 .00344540,-0.00000102,-0.01634178,0.02266144,0.00000047,-0.21088978,0.
 13865704,-0.00000391,0.00085092,0.00039049,0.00000003,0.00025139,-0.00
 038015,0.00000004,0.00002051,0.00012410,0.00000010,-0.00097470,0.00108
 812,0.00000013,0.00114474,-0.00021987,0.00000013,0.22163244,0.02502349
 ,-0.01475697,0.00000037,-0.00289717,-0.00488584,0.00000013,-0.00101792
 ,-0.00034583,-0.00000007,-0.00234829,0.00067822,-0.00000028,-0.0089601
 4,0.00920543,-0.00000081,0.13866108,-0.18360747,0.00000139,-0.00024925
 ,0.00116277,0.00000011,0.00120912,-0.00090524,0.00000021,0.00012427,0.
 00004501,-0.00000002,-0.00050106,0.00032120,0.00000008,0.00041858,0.00
 086766,0.00000019,-0.14946272,0.19222108,-0.00000174,0.00000423,0.0032
 2871,0.00000217,0.00000056,0.00719039,-0.00000025,-0.00000115,-0.00067
 946,-0.00000135,-0.00000116,0.00718469,-0.00000314,0.00000298,0.003224
 07,0.00000087,-0.00000411,-0.03691750,0.00000051,-0.00000028,-0.004053
 10,-0.00000017,0.00000017,0.00025565,-0.00000019,0.00000008,-0.0012492
 5,-0.00000027,0.00000029,0.00025563,0.00000031,-0.00000030,-0.00404865
 ,0.00000324,-0.00000130,0.02560880\\-0.00042635,-0.00006210,0.00000049
 ,0.00001209,-0.00040273,0.00002490,0.00024540,-0.00035737,-0.00001852,
 0.00037214,0.00023874,0.00000351,0.00016694,0.00036477,0.00001826,-0.0
 0036172,0.00022268,-0.00002041,0.00011604,0.00003382,-0.00000334,0.000
 01344,0.00011641,-0.00000318,-0.00008459,0.00009386,-0.00000182,-0.000
 11416,-0.00005390,0.00000032,-0.00003168,-0.00011794,-0.00000481,0.000
 09245,-0.00007624,0.00000459\\\@


 Experience is what you get when you don't get what you want.
 -- Dan Stanford
 Job cpu time:       0 days  0 hours  8 minutes 58.5 seconds.
 Elapsed time:       0 days  0 hours  1 minutes  7.4 seconds.
 File lengths (MBytes):  RWF=     22 Int=      0 D2E=      0 Chk=      2 Scr=      1
 Normal termination of Gaussian 16 at Thu Aug  6 17:53:56 2020.
