 Entering Gaussian System, Link 0=g16
 Input=CH4_opt.gjf
 Output=CH4_opt.log
 Initial command:
 /home/qingchun/software/g16A_modified_by_qingchun/g16/l1.exe "/scratch/qingchun/gaussian/Gau-4483.inp" -scrdir="/scratch/qingchun/gaussian/"
 Entering Link 1 = /home/qingchun/software/g16A_modified_by_qingchun/g16/l1.exe PID=      4484.
  
 Copyright (c) 1988,1990,1992,1993,1995,1998,2003,2009,2016,
            Gaussian, Inc.  All Rights Reserved.
  
 This is part of the Gaussian(R) 16 program.  It is based on
 the Gaussian(R) 09 system (copyright 2009, Gaussian, Inc.),
 the Gaussian(R) 03 system (copyright 2003, Gaussian, Inc.),
 the Gaussian(R) 98 system (copyright 1998, Gaussian, Inc.),
 the Gaussian(R) 94 system (copyright 1995, Gaussian, Inc.),
 the Gaussian 92(TM) system (copyright 1992, Gaussian, Inc.),
 the Gaussian 90(TM) system (copyright 1990, Gaussian, Inc.),
 the Gaussian 88(TM) system (copyright 1988, Gaussian, Inc.),
 the Gaussian 86(TM) system (copyright 1986, Carnegie Mellon
 University), and the Gaussian 82(TM) system (copyright 1983,
 Carnegie Mellon University). Gaussian is a federally registered
 trademark of Gaussian, Inc.
  
 This software contains proprietary and confidential information,
 including trade secrets, belonging to Gaussian, Inc.
  
 This software is provided under written license and may be
 used, copied, transmitted, or stored only in accord with that
 written license.
  
 The following legend is applicable only to US Government
 contracts under FAR:
  
                    RESTRICTED RIGHTS LEGEND
  
 Use, reproduction and disclosure by the US Government is
 subject to restrictions as set forth in subparagraphs (a)
 and (c) of the Commercial Computer Software - Restricted
 Rights clause in FAR 52.227-19.
  
 Gaussian, Inc.
 340 Quinnipiac St., Bldg. 40, Wallingford CT 06492
  
  
 ---------------------------------------------------------------
 Warning -- This program may not be used in any manner that
 competes with the business of Gaussian, Inc. or will provide
 assistance to any competitor of Gaussian, Inc.  The licensee
 of this program is prohibited from giving any competitor of
 Gaussian, Inc. access to this program.  By using this program,
 the user acknowledges that Gaussian, Inc. is engaged in the
 business of creating and licensing software in the field of
 computational chemistry and represents and warrants to the
 licensee that it is not a competitor of Gaussian, Inc. and that
 it will not use this program in any manner prohibited above.
 ---------------------------------------------------------------
  

 Cite this work as:
 Gaussian 16, Revision A.03,
 M. J. Frisch, G. W. Trucks, H. B. Schlegel, G. E. Scuseria, 
 M. A. Robb, J. R. Cheeseman, G. Scalmani, V. Barone, 
 G. A. Petersson, H. Nakatsuji, X. Li, M. Caricato, A. V. Marenich, 
 J. Bloino, B. G. Janesko, R. Gomperts, B. Mennucci, H. P. Hratchian, 
 J. V. Ortiz, A. F. Izmaylov, J. L. Sonnenberg, D. Williams-Young, 
 F. Ding, F. Lipparini, F. Egidi, J. Goings, B. Peng, A. Petrone, 
 T. Henderson, D. Ranasinghe, V. G. Zakrzewski, J. Gao, N. Rega, 
 G. Zheng, W. Liang, M. Hada, M. Ehara, K. Toyota, R. Fukuda, 
 J. Hasegawa, M. Ishida, T. Nakajima, Y. Honda, O. Kitao, H. Nakai, 
 T. Vreven, K. Throssell, J. A. Montgomery, Jr., J. E. Peralta, 
 F. Ogliaro, M. J. Bearpark, J. J. Heyd, E. N. Brothers, K. N. Kudin, 
 V. N. Staroverov, T. A. Keith, R. Kobayashi, J. Normand, 
 K. Raghavachari, A. P. Rendell, J. C. Burant, S. S. Iyengar, 
 J. Tomasi, M. Cossi, J. M. Millam, M. Klene, C. Adamo, R. Cammi, 
 J. W. Ochterski, R. L. Martin, K. Morokuma, O. Farkas, 
 J. B. Foresman, and D. J. Fox, Gaussian, Inc., Wallingford CT, 2016.
 
 ******************************************
 Gaussian 16:  ES64L-G16RevA.03 25-Dec-2016
                29-Jun-2020 
 ******************************************
 %nprocshared=4
 Will use up to    4 processors via shared memory.
 %mem=30GB
 %chk=CH4_opt.chk
 ----------------------------------
 # opt(z-matrix) freq b3lyp/cc-pvdz
 ----------------------------------
 1/10=7,18=40,26=3,38=1/1,3;
 2/12=2,17=6,18=5,29=3,40=1/2;
 3/5=16,11=2,25=1,30=1,71=1,74=-5/1,2,3;
 4//1;
 5/5=2,38=5/2;
 6/7=2,8=2,9=2,10=2,28=1/1;
 7/29=1/1,2,3,16;
 1/10=7,18=40,26=3/3(2);
 2/29=3/2;
 99//99;
 2/29=3/2;
 3/5=16,11=2,25=1,30=1,71=1,74=-5/1,2,3;
 4/5=5,16=3,69=1/1;
 5/5=2,38=5/2;
 7//1,2,3,16;
 1/18=40,26=3/3(-5);
 2/29=3/2;
 6/7=2,8=2,9=2,10=2,19=2,28=1/1;
 99/9=1/99;
 -------
 cc-pVDZ
 -------
 Symbolic Z-matrix:
 Charge =  0 Multiplicity = 1
 C                     0.11647   0.30782   0. 
 H                     0.44979  -0.63499   0. 
 H                     0.44981   0.77922   0.8165 
 H                     0.44981   0.77922  -0.8165 
 H                    -0.88353   0.30783   0. 
 

 GradGradGradGradGradGradGradGradGradGradGradGradGradGradGradGradGradGrad
 Berny optimization.
 Initialization pass.
 No Z-matrix variables, so optimization will use Cartesian coordinates.
 Trust Radius=3.00D-01 FncErr=1.00D-07 GrdErr=1.00D-06 EigMax=2.50D+02 EigMin=1.00D-04
 Number of steps in this run=     25 maximum allowed number of steps=    100.
 GradGradGradGradGradGradGradGradGradGradGradGradGradGradGradGradGradGrad

 ---------------------------------------------------------------------------------------------------
                            Z-MATRIX (ANGSTROMS AND DEGREES)
   CD    Cent   Atom    N1       Length/X        N2       Alpha/Y        N3        Beta/Z          J
 ---------------------------------------------------------------------------------------------------
      1      1  C        0   0.116473          0.307820          0.000000
      2      2  H        0   0.449794         -0.634993          0.000000
      3      3  H        0   0.449812          0.779220          0.816497
      4      4  H        0   0.449812          0.779220         -0.816497
      5      5  H        0  -0.883527          0.307833          0.000000
 ---------------------------------------------------------------------------------------------------
                         Z-Matrix orientation:                         
 ---------------------------------------------------------------------
 Center     Atomic      Atomic             Coordinates (Angstroms)
 Number     Number       Type             X           Y           Z
 ---------------------------------------------------------------------
      1          6           0        0.116473    0.307820    0.000000
      2          1           0        0.449794   -0.634993    0.000000
      3          1           0        0.449812    0.779220    0.816497
      4          1           0        0.449812    0.779220   -0.816497
      5          1           0       -0.883527    0.307833    0.000000
 ---------------------------------------------------------------------
                    Distance matrix (angstroms):
                    1          2          3          4          5
     1  C    0.000000
     2  H    1.000000   0.000000
     3  H    1.000000   1.632993   0.000000
     4  H    1.000000   1.632993   1.632993   0.000000
     5  H    1.000000   1.632993   1.632993   1.632993   0.000000
 Stoichiometry    CH4
 Framework group  T[O(C),4C3(H)]
 Deg. of freedom     1
 Full point group                 T       NOp  12
 Largest Abelian subgroup         D2      NOp   4
 Largest concise Abelian subgroup D2      NOp   4
                         Standard orientation:                         
 ---------------------------------------------------------------------
 Center     Atomic      Atomic             Coordinates (Angstroms)
 Number     Number       Type             X           Y           Z
 ---------------------------------------------------------------------
      1          6           0        0.000000    0.000000    0.000000
      2          1           0        0.577350    0.577350    0.577350
      3          1           0       -0.577350   -0.577350    0.577350
      4          1           0       -0.577350    0.577350   -0.577350
      5          1           0        0.577350   -0.577350   -0.577350
 ---------------------------------------------------------------------
 Rotational constants (GHZ):         188.0456789         188.0456789         188.0456789
 Standard basis: CC-pVDZ (5D, 7F)
 There are    11 symmetry adapted cartesian basis functions of A   symmetry.
 There are     8 symmetry adapted cartesian basis functions of B1  symmetry.
 There are     8 symmetry adapted cartesian basis functions of B2  symmetry.
 There are     8 symmetry adapted cartesian basis functions of B3  symmetry.
 There are    10 symmetry adapted basis functions of A   symmetry.
 There are     8 symmetry adapted basis functions of B1  symmetry.
 There are     8 symmetry adapted basis functions of B2  symmetry.
 There are     8 symmetry adapted basis functions of B3  symmetry.
    34 basis functions,    61 primitive gaussians,    35 cartesian basis functions
     5 alpha electrons        5 beta electrons
       nuclear repulsion energy        14.6445748607 Hartrees.
 NAtoms=    5 NActive=    5 NUniq=    2 SFac= 4.00D+00 NAtFMM=   60 NAOKFM=F Big=F
 Integral buffers will be    131072 words long.
 Raffenetti 2 integral format.
 Two-electron integral symmetry is turned on.
 One-electron integrals computed using PRISM.
 NBasis=    34 RedAO= T EigKep=  1.98D-02  NBF=    10     8     8     8
 NBsUse=    34 1.00D-06 EigRej= -1.00D+00 NBFU=    10     8     8     8
 ExpMin= 1.22D-01 ExpMax= 6.67D+03 ExpMxC= 2.28D+02 IAcc=3 IRadAn=         5 AccDes= 0.00D+00
 Harris functional with IExCor=  402 and IRadAn=       5 diagonalized for initial guess.
 HarFok:  IExCor=  402 AccDes= 0.00D+00 IRadAn=         5 IDoV= 1 UseB2=F ITyADJ=14
 ICtDFT=  3500011 ScaDFX=  1.000000  1.000000  1.000000  1.000000
 FoFCou: FMM=F IPFlag=           0 FMFlag=      100000 FMFlg1=           0
         NFxFlg=           0 DoJE=T BraDBF=F KetDBF=T FulRan=T
         wScrn=  0.000000 ICntrl=       500 IOpCl=  0 I1Cent=   200000004 NGrid=           0
         NMat0=    1 NMatS0=      1 NMatT0=    0 NMatD0=    1 NMtDS0=    0 NMtDT0=    0
 Petite list used in FoFCou.
 Initial guess orbital symmetries:
       Occupied  (A) (A) (T) (T) (T)
       Virtual   (A) (T) (T) (T) (T) (T) (T) (T) (T) (T) (A) (E)
                 (E) (A) (T) (T) (T) (T) (T) (T) (T) (T) (T) (E)
                 (E) (T) (T) (T) (A)
 The electronic state of the initial guess is 1-A.
 Keep R1 ints in memory in symmetry-blocked form, NReq=3630914.
 Requested convergence on RMS density matrix=1.00D-08 within 128 cycles.
 Requested convergence on MAX density matrix=1.00D-06.
 Requested convergence on             energy=1.00D-06.
 No special actions if energy rises.
 Integral accuracy reduced to 1.0D-05 until final iterations.
 Initial convergence to 1.0D-05 achieved.  Increase integral accuracy.
 SCF Done:  E(RB3LYP) =  -40.4861189608     A.U. after    9 cycles
            NFock=  9  Conv=0.31D-08     -V/T= 1.9959

 **********************************************************************

            Population analysis using the SCF density.

 **********************************************************************

 Orbital symmetries:
       Occupied  (A) (A) (T) (T) (T)
       Virtual   (A) (T) (T) (T) (T) (T) (T) (T) (T) (T) (A) (E)
                 (E) (A) (T) (T) (T) (T) (T) (T) (T) (T) (T) (E)
                 (E) (T) (T) (T) (A)
 The electronic state is 1-A.
 Alpha  occ. eigenvalues --  -10.13396  -0.72305  -0.40568  -0.40568  -0.40568
 Alpha virt. eigenvalues --    0.08769   0.16340   0.16340   0.16340   0.41017
 Alpha virt. eigenvalues --    0.41017   0.41017   0.70280   0.70280   0.70280
 Alpha virt. eigenvalues --    0.79695   0.91473   0.91473   1.05442   1.49813
 Alpha virt. eigenvalues --    1.49813   1.49813   1.70476   1.70476   1.70476
 Alpha virt. eigenvalues --    2.00768   2.00768   2.00768   2.39702   2.39702
 Alpha virt. eigenvalues --    2.66652   2.66652   2.66652   2.75081
          Condensed to atoms (all electrons):
               1          2          3          4          5
     1  C    4.312596   0.418008   0.418008   0.418008   0.418008
     2  H    0.418008   0.648762  -0.020976  -0.020976  -0.020976
     3  H    0.418008  -0.020976   0.648762  -0.020976  -0.020976
     4  H    0.418008  -0.020976  -0.020976   0.648762  -0.020976
     5  H    0.418008  -0.020976  -0.020976  -0.020976   0.648762
 Mulliken charges:
               1
     1  C    0.015372
     2  H   -0.003843
     3  H   -0.003843
     4  H   -0.003843
     5  H   -0.003843
 Sum of Mulliken charges =   0.00000
 Mulliken charges with hydrogens summed into heavy atoms:
               1
     1  C    0.000000
 Electronic spatial extent (au):  <R**2>=             32.1866
 Charge=              0.0000 electrons
 Dipole moment (field-independent basis, Debye):
    X=              0.0000    Y=              0.0000    Z=              0.0000  Tot=              0.0000
 Quadrupole moment (field-independent basis, Debye-Ang):
   XX=             -8.0264   YY=             -8.0264   ZZ=             -8.0264
   XY=              0.0000   XZ=              0.0000   YZ=              0.0000
 Traceless Quadrupole moment (field-independent basis, Debye-Ang):
   XX=              0.0000   YY=              0.0000   ZZ=              0.0000
   XY=              0.0000   XZ=              0.0000   YZ=              0.0000
 Octapole moment (field-independent basis, Debye-Ang**2):
  XXX=              0.0000  YYY=              0.0000  ZZZ=              0.0000  XYY=              0.0000
  XXY=              0.0000  XXZ=              0.0000  XZZ=              0.0000  YZZ=              0.0000
  YYZ=              0.0000  XYZ=              0.3544
 Hexadecapole moment (field-independent basis, Debye-Ang**3):
 XXXX=            -13.9555 YYYY=            -13.9555 ZZZZ=            -13.9555 XXXY=              0.0000
 XXXZ=              0.0000 YYYX=              0.0000 YYYZ=              0.0000 ZZZX=              0.0000
 ZZZY=              0.0000 XXYY=             -4.3469 XXZZ=             -4.3469 YYZZ=             -4.3469
 XXYZ=              0.0000 YYXZ=              0.0000 ZZXY=              0.0000
 N-N= 1.464457486068D+01 E-N=-1.226698104788D+02  KE= 4.065300542407D+01
 Symmetry A    KE= 3.455573922604D+01
 Symmetry B1   KE= 2.032422066007D+00
 Symmetry B2   KE= 2.032422066007D+00
 Symmetry B3   KE= 2.032422066007D+00
 Calling FoFJK, ICntrl=      2127 FMM=F ISym2X=1 I1Cent= 0 IOpClX= 0 NMat=1 NMatS=1 NMatT=0.
 ***** Axes restored to original set *****
 -------------------------------------------------------------------
 Center     Atomic                   Forces (Hartrees/Bohr)
 Number     Number              X              Y              Z
 -------------------------------------------------------------------
      1        6           0.000000000    0.000000000    0.000000000
      2        1           0.029334376   -0.082973344   -0.000000072
      3        1           0.029335943    0.041486098    0.071856716
      4        1           0.029335826    0.041486180   -0.071856716
      5        1          -0.088006145    0.000001067    0.000000072
 -------------------------------------------------------------------
 Cartesian Forces:  Max     0.088006145 RMS     0.045446178

 GradGradGradGradGradGradGradGradGradGradGradGradGradGradGradGradGradGrad
 Berny optimization.
 Search for a local minimum.
 Step number   1 out of a maximum of   25
 All quantities printed in internal units (Hartrees-Bohrs-Radians)
 Second derivative matrix not updated -- first step.
 The second derivative matrix:
                          X1        Y1        Z1        X2        Y2
           X1           0.87851
           Y1           0.00000   0.87851
           Z1           0.00000   0.00000   0.87851
           X2          -0.13387   0.12127   0.00000   0.11319
           Y2           0.12127  -0.43401   0.00000  -0.12858   0.43142
           Z2           0.00000   0.00000  -0.09100   0.00000   0.00000
           X3          -0.13388  -0.06064  -0.10503   0.01034   0.00366
           Y3          -0.06064  -0.17675  -0.14853  -0.01755  -0.00620
           Z3          -0.10503  -0.14853  -0.34825   0.00591   0.00209
           X4          -0.13388  -0.06064   0.10503   0.01034   0.00366
           Y4          -0.06064  -0.17675   0.14853  -0.01755  -0.00620
           Z4           0.10503   0.14853  -0.34825  -0.00591  -0.00209
           X5          -0.47688   0.00000   0.00000   0.00000   0.00000
           Y5           0.00000  -0.09100   0.00000   0.04241   0.01499
           Z5           0.00000   0.00000  -0.09100   0.00000   0.00000
                          Z2        X3        Y3        Z3        X4
           Z2           0.06773
           X3           0.01815   0.11319
           Y3          -0.03254   0.06429   0.15865
           Z3           0.01137   0.11136   0.15748   0.34050
           X4          -0.01815   0.01034   0.01389  -0.01224   0.11319
           Y4           0.03254   0.01389   0.02016  -0.01731   0.06429
           Z4           0.01137   0.01224   0.01731  -0.01499  -0.11136
           X5           0.00000   0.00000   0.00000   0.00000   0.00000
           Y5           0.00000  -0.02120   0.00414   0.00627  -0.02120
           Z5           0.00052  -0.03672   0.00627   0.01137   0.03672
                          Y4        Z4        X5        Y5        Z5
           Y4           0.15865
           Z4          -0.15748   0.34050
           X5           0.00000   0.00000   0.47688
           Y5           0.00414  -0.00627   0.00000   0.06773
           Z5          -0.00627   0.01137   0.00000   0.00000   0.06773
 ITU=  0
     Eigenvalues ---    0.13441   0.13441   0.16450   0.16450   0.16450
     Eigenvalues ---    0.47688   1.09731   1.09731   1.09731
 RFO step:  Lambda=-5.79276158D-02 EMin= 1.34413700D-01
 ClnCor:  largest displacement from symmetrization is 1.10D-14 for atom     4.
 Linear search not attempted -- first point.
 Maximum step size (   0.300) exceeded in Quadratic search.
    -- Step size scaled by   0.912
 ClnCor:  largest displacement from symmetrization is 3.75D-15 for atom     3.
 B after Tr=     0.000000    0.000000    0.000000
         Rot=    1.000000    0.000000    0.000000    0.000000 Ang=   0.00 deg.
 Variable       Old X    -DE/DX   Delta X   Delta X   Delta X     New X
                                 (Linear)    (Quad)   (Total)
    X1        0.22010   0.00000   0.00000   0.00000   0.00000   0.22010
    Y1        0.58170   0.00000   0.00000   0.00000   0.00000   0.58170
    Z1        0.00000   0.00000   0.00000   0.00000   0.00000   0.00000
    X2        0.84999   0.02933   0.00000   0.05000   0.05000   0.89999
    Y2       -1.19996  -0.08297   0.00000  -0.14142  -0.14142  -1.34138
    Z2        0.00000   0.00000   0.00000   0.00000   0.00000   0.00000
    X3        0.85002   0.02934   0.00000   0.05000   0.05000   0.90002
    Y3        1.47251   0.04149   0.00000   0.07071   0.07071   1.54322
    Z3        1.54295   0.07186   0.00000   0.12247   0.12247   1.66543
    X4        0.85002   0.02934   0.00000   0.05000   0.05000   0.90002
    Y4        1.47251   0.04149   0.00000   0.07071   0.07071   1.54322
    Z4       -1.54295  -0.07186   0.00000  -0.12247  -0.12247  -1.66543
    X5       -1.66962  -0.08801   0.00000  -0.15000  -0.15000  -1.81962
    Y5        0.58172   0.00000   0.00000   0.00000   0.00000   0.58172
    Z5        0.00000   0.00000   0.00000   0.00000   0.00000   0.00000
         Item               Value     Threshold  Converged?
 Maximum Force            0.088006     0.000450     NO 
 RMS     Force            0.045446     0.000300     NO 
 Maximum Displacement     0.150000     0.001800     NO 
 RMS     Displacement     0.077460     0.001200     NO 
 Predicted change in Energy=-3.134394D-02
 GradGradGradGradGradGradGradGradGradGradGradGradGradGradGradGradGradGrad

                          Input orientation:                          
 ---------------------------------------------------------------------
 Center     Atomic      Atomic             Coordinates (Angstroms)
 Number     Number       Type             X           Y           Z
 ---------------------------------------------------------------------
      1          6           0        0.116473    0.307820    0.000000
      2          1           0        0.476252   -0.709830   -0.000001
      3          1           0        0.476272    0.816638    0.881307
      4          1           0        0.476270    0.816639   -0.881307
      5          1           0       -0.962904    0.307833    0.000001
 ---------------------------------------------------------------------
                    Distance matrix (angstroms):
                    1          2          3          4          5
     1  C    0.000000
     2  H    1.079377   0.000000
     3  H    1.079377   1.762615   0.000000
     4  H    1.079377   1.762615   1.762615   0.000000
     5  H    1.079377   1.762615   1.762615   1.762615   0.000000
 Stoichiometry    CH4
 Framework group  TD[O(C),4C3(H)]
 Deg. of freedom     1
 Full point group                 TD      NOp  24
 Omega: Change in point group or standard orientation.

 Old FWG=T    [O(C1),4C3(H1)]
 New FWG=TD   [O(C1),4C3(H1)]
 Largest Abelian subgroup         D2      NOp   4
 Largest concise Abelian subgroup D2      NOp   4
                         Standard orientation:                         
 ---------------------------------------------------------------------
 Center     Atomic      Atomic             Coordinates (Angstroms)
 Number     Number       Type             X           Y           Z
 ---------------------------------------------------------------------
      1          6           0        0.000000    0.000000    0.000000
      2          1           0        0.623178    0.623178    0.623178
      3          1           0       -0.623178   -0.623178    0.623178
      4          1           0       -0.623178    0.623178   -0.623178
      5          1           0        0.623178   -0.623178   -0.623178
 ---------------------------------------------------------------------
 Rotational constants (GHZ):         161.4051446         161.4051446         161.4051446
 Standard basis: CC-pVDZ (5D, 7F)
 There are    11 symmetry adapted cartesian basis functions of A   symmetry.
 There are     8 symmetry adapted cartesian basis functions of B1  symmetry.
 There are     8 symmetry adapted cartesian basis functions of B2  symmetry.
 There are     8 symmetry adapted cartesian basis functions of B3  symmetry.
 There are    10 symmetry adapted basis functions of A   symmetry.
 There are     8 symmetry adapted basis functions of B1  symmetry.
 There are     8 symmetry adapted basis functions of B2  symmetry.
 There are     8 symmetry adapted basis functions of B3  symmetry.
    34 basis functions,    61 primitive gaussians,    35 cartesian basis functions
     5 alpha electrons        5 beta electrons
       nuclear repulsion energy        13.5676232630 Hartrees.
 NAtoms=    5 NActive=    5 NUniq=    2 SFac= 4.00D+00 NAtFMM=   60 NAOKFM=F Big=F
 Integral buffers will be    131072 words long.
 Raffenetti 2 integral format.
 Two-electron integral symmetry is turned on.
 One-electron integrals computed using PRISM.
 NBasis=    34 RedAO= T EigKep=  2.29D-02  NBF=    10     8     8     8
 NBsUse=    34 1.00D-06 EigRej= -1.00D+00 NBFU=    10     8     8     8
 Initial guess from the checkpoint file:  "CH4_opt.chk"
 B after Tr=     0.000000    0.000000    0.000000
         Rot=    1.000000    0.000000    0.000000    0.000000 Ang=   0.00 deg.
 Initial guess orbital symmetries:
       Occupied  (A1) (A1) (T2) (T2) (T2)
       Virtual   (A1) (T2) (T2) (T2) (T2) (T2) (T2) (T2) (T2) (T2)
                 (A1) (E) (E) (A1) (T1) (T1) (T1) (T2) (T2) (T2)
                 (T2) (T2) (T2) (E) (E) (T2) (T2) (T2) (A1)
 ExpMin= 1.22D-01 ExpMax= 6.67D+03 ExpMxC= 2.28D+02 IAcc=2 IRadAn=         4 AccDes= 0.00D+00
 Harris functional with IExCor=  402 and IRadAn=       4 diagonalized for initial guess.
 HarFok:  IExCor=  402 AccDes= 0.00D+00 IRadAn=         4 IDoV= 1 UseB2=F ITyADJ=14
 ICtDFT=  3500011 ScaDFX=  1.000000  1.000000  1.000000  1.000000
 FoFCou: FMM=F IPFlag=           0 FMFlag=      100000 FMFlg1=           0
         NFxFlg=           0 DoJE=T BraDBF=F KetDBF=T FulRan=T
         wScrn=  0.000000 ICntrl=       500 IOpCl=  0 I1Cent=   200000004 NGrid=           0
         NMat0=    1 NMatS0=      1 NMatT0=    0 NMatD0=    1 NMtDS0=    0 NMtDT0=    0
 Petite list used in FoFCou.
 Keep R1 ints in memory in symmetry-blocked form, NReq=3631130.
 Requested convergence on RMS density matrix=1.00D-08 within 128 cycles.
 Requested convergence on MAX density matrix=1.00D-06.
 Requested convergence on             energy=1.00D-06.
 No special actions if energy rises.
 Integral accuracy reduced to 1.0D-05 until final iterations.
 Initial convergence to 1.0D-05 achieved.  Increase integral accuracy.
 SCF Done:  E(RB3LYP) =  -40.5152537583     A.U. after    9 cycles
            NFock=  9  Conv=0.19D-08     -V/T= 2.0086
 Calling FoFJK, ICntrl=      2127 FMM=F ISym2X=1 I1Cent= 0 IOpClX= 0 NMat=1 NMatS=1 NMatT=0.
 ***** Axes restored to original set *****
 -------------------------------------------------------------------
 Center     Atomic                   Forces (Hartrees/Bohr)
 Number     Number              X              Y              Z
 -------------------------------------------------------------------
      1        6           0.000000000    0.000000000    0.000000000
      2        1           0.004792983   -0.013557126   -0.000000012
      3        1           0.004793239    0.006778469    0.011740765
      4        1           0.004793220    0.006778482   -0.011740765
      5        1          -0.014379441    0.000000174    0.000000012
 -------------------------------------------------------------------
 Cartesian Forces:  Max     0.014379441 RMS     0.007425512

 GradGradGradGradGradGradGradGradGradGradGradGradGradGradGradGradGradGrad
 Berny optimization.
 Search for a local minimum.
 Step number   2 out of a maximum of   25
 All quantities printed in internal units (Hartrees-Bohrs-Radians)
 Update second derivatives using D2CorN and points    1    2
 DE= -2.91D-02 DEPred=-3.13D-02 R= 9.30D-01
 TightC=F SS=  1.41D+00  RLast= 3.00D-01 DXNew= 5.0454D-01 9.0000D-01
 Trust test= 9.30D-01 RLast= 3.00D-01 DXMaxT set to 5.05D-01
 The second derivative matrix:
                          X1        Y1        Z1        X2        Y2
           X1           0.87851
           Y1           0.00000   0.87851
           Z1           0.00000   0.00000   0.87851
           X2          -0.13387   0.12127   0.00000   0.11357
           Y2           0.12127  -0.43401   0.00000  -0.12968   0.43453
           Z2           0.00000   0.00000  -0.09100   0.00000   0.00000
           X3          -0.13388  -0.06064  -0.10503   0.01073   0.00256
           Y3          -0.06064  -0.17675  -0.14853  -0.01700  -0.00775
           Z3          -0.10503  -0.14853  -0.34825   0.00686  -0.00060
           X4          -0.13388  -0.06064   0.10503   0.01073   0.00256
           Y4          -0.06064  -0.17675   0.14853  -0.01700  -0.00775
           Z4           0.10503   0.14853  -0.34825  -0.00686   0.00060
           X5          -0.47688   0.00000   0.00000  -0.00116   0.00329
           Y5           0.00000  -0.09100   0.00000   0.04241   0.01499
           Z5           0.00000   0.00000  -0.09100   0.00000   0.00000
                          Z2        X3        Y3        Z3        X4
           Z2           0.06773
           X3           0.01815   0.11358
           Y3          -0.03254   0.06484   0.15942
           Z3           0.01137   0.11231   0.15883   0.34282
           X4          -0.01815   0.01073   0.01444  -0.01129   0.11358
           Y4           0.03254   0.01444   0.02094  -0.01597   0.06484
           Z4           0.01137   0.01129   0.01597  -0.01732  -0.11231
           X5           0.00000  -0.00116  -0.00165  -0.00285  -0.00116
           Y5           0.00000  -0.02120   0.00414   0.00627  -0.02120
           Z5           0.00052  -0.03672   0.00627   0.01137   0.03672
                          Y4        Z4        X5        Y5        Z5
           Y4           0.15943
           Z4          -0.15883   0.34282
           X5          -0.00165   0.00285   0.48037
           Y5           0.00414  -0.00627  -0.00001   0.06773
           Z5          -0.00627   0.01137   0.00000   0.00000   0.06773
 ITU=  1  0
     Eigenvalues ---    0.13441   0.13441   0.16450   0.16450   0.16450
     Eigenvalues ---    0.49084   1.09731   1.09731   1.09731
 RFO step:  Lambda= 0.00000000D+00 EMin= 1.34413700D-01
 ClnCor:  largest displacement from symmetrization is 4.15D-14 for atom     3.
 Quartic linear search produced a step of  0.26259.
 ClnCor:  largest displacement from symmetrization is 3.04D-15 for atom     4.
 B after Tr=     0.000000    0.000000    0.000000
         Rot=    1.000000    0.000000    0.000000    0.000000 Ang=   0.00 deg.
 Variable       Old X    -DE/DX   Delta X   Delta X   Delta X     New X
                                 (Linear)    (Quad)   (Total)
    X1        0.22010   0.00000   0.00000   0.00000   0.00000   0.22010
    Y1        0.58170   0.00000   0.00000   0.00000   0.00000   0.58170
    Z1        0.00000   0.00000   0.00000   0.00000   0.00000   0.00000
    X2        0.89999   0.00479   0.01313   0.00000   0.01313   0.91312
    Y2       -1.34138  -0.01356  -0.03714   0.00000  -0.03714  -1.37852
    Z2        0.00000   0.00000   0.00000   0.00000   0.00000   0.00000
    X3        0.90002   0.00479   0.01313   0.00000   0.01313   0.91315
    Y3        1.54322   0.00678   0.01857   0.00000   0.01857   1.56179
    Z3        1.66543   0.01174   0.03216   0.00000   0.03216   1.69759
    X4        0.90002   0.00479   0.01313   0.00000   0.01313   0.91315
    Y4        1.54322   0.00678   0.01857   0.00000   0.01857   1.56179
    Z4       -1.66543  -0.01174  -0.03216   0.00000  -0.03216  -1.69759
    X5       -1.81962  -0.01438  -0.03939   0.00000  -0.03939  -1.85901
    Y5        0.58172   0.00000   0.00000   0.00000   0.00000   0.58172
    Z5        0.00000   0.00000   0.00000   0.00000   0.00000   0.00000
         Item               Value     Threshold  Converged?
 Maximum Force            0.014379     0.000450     NO 
 RMS     Force            0.007426     0.000300     NO 
 Maximum Displacement     0.039388     0.001800     NO 
 RMS     Displacement     0.020340     0.001200     NO 
 Predicted change in Energy=-7.424969D-04
 GradGradGradGradGradGradGradGradGradGradGradGradGradGradGradGradGradGrad

                          Input orientation:                          
 ---------------------------------------------------------------------
 Center     Atomic      Atomic             Coordinates (Angstroms)
 Number     Number       Type             X           Y           Z
 ---------------------------------------------------------------------
      1          6           0        0.116473    0.307820    0.000000
      2          1           0        0.483200   -0.729481   -0.000001
      3          1           0        0.483220    0.826464    0.898326
      4          1           0        0.483218    0.826465   -0.898326
      5          1           0       -0.983747    0.307834    0.000001
 ---------------------------------------------------------------------
                    Distance matrix (angstroms):
                    1          2          3          4          5
     1  C    0.000000
     2  H    1.100220   0.000000
     3  H    1.100220   1.796652   0.000000
     4  H    1.100220   1.796652   1.796652   0.000000
     5  H    1.100220   1.796652   1.796652   1.796652   0.000000
 Stoichiometry    CH4
 Framework group  TD[O(C),4C3(H)]
 Deg. of freedom     1
 Full point group                 TD      NOp  24
 Largest Abelian subgroup         D2      NOp   4
 Largest concise Abelian subgroup D2      NOp   4
                         Standard orientation:                         
 ---------------------------------------------------------------------
 Center     Atomic      Atomic             Coordinates (Angstroms)
 Number     Number       Type             X           Y           Z
 ---------------------------------------------------------------------
      1          6           0        0.000000    0.000000    0.000000
      2          1           0        0.635212    0.635212    0.635212
      3          1           0       -0.635212   -0.635212    0.635212
      4          1           0       -0.635212    0.635212   -0.635212
      5          1           0        0.635212   -0.635212   -0.635212
 ---------------------------------------------------------------------
 Rotational constants (GHZ):         155.3475153         155.3475153         155.3475153
 Standard basis: CC-pVDZ (5D, 7F)
 There are    11 symmetry adapted cartesian basis functions of A   symmetry.
 There are     8 symmetry adapted cartesian basis functions of B1  symmetry.
 There are     8 symmetry adapted cartesian basis functions of B2  symmetry.
 There are     8 symmetry adapted cartesian basis functions of B3  symmetry.
 There are    10 symmetry adapted basis functions of A   symmetry.
 There are     8 symmetry adapted basis functions of B1  symmetry.
 There are     8 symmetry adapted basis functions of B2  symmetry.
 There are     8 symmetry adapted basis functions of B3  symmetry.
    34 basis functions,    61 primitive gaussians,    35 cartesian basis functions
     5 alpha electrons        5 beta electrons
       nuclear repulsion energy        13.3105881195 Hartrees.
 NAtoms=    5 NActive=    5 NUniq=    2 SFac= 4.00D+00 NAtFMM=   60 NAOKFM=F Big=F
 Integral buffers will be    131072 words long.
 Raffenetti 2 integral format.
 Two-electron integral symmetry is turned on.
 One-electron integrals computed using PRISM.
 NBasis=    34 RedAO= T EigKep=  2.38D-02  NBF=    10     8     8     8
 NBsUse=    34 1.00D-06 EigRej= -1.00D+00 NBFU=    10     8     8     8
 Initial guess from the checkpoint file:  "CH4_opt.chk"
 B after Tr=     0.000000    0.000000    0.000000
         Rot=    1.000000    0.000000    0.000000    0.000000 Ang=   0.00 deg.
 Initial guess orbital symmetries:
       Occupied  (A1) (A1) (T2) (T2) (T2)
       Virtual   (A1) (T2) (T2) (T2) (T2) (T2) (T2) (T2) (T2) (T2)
                 (A1) (E) (E) (A1) (T1) (T1) (T1) (T2) (T2) (T2)
                 (T2) (T2) (T2) (E) (E) (A1) (T2) (T2) (T2)
 ExpMin= 1.22D-01 ExpMax= 6.67D+03 ExpMxC= 2.28D+02 IAcc=2 IRadAn=         4 AccDes= 0.00D+00
 Harris functional with IExCor=  402 and IRadAn=       4 diagonalized for initial guess.
 HarFok:  IExCor=  402 AccDes= 0.00D+00 IRadAn=         4 IDoV= 1 UseB2=F ITyADJ=14
 ICtDFT=  3500011 ScaDFX=  1.000000  1.000000  1.000000  1.000000
 FoFCou: FMM=F IPFlag=           0 FMFlag=      100000 FMFlg1=           0
         NFxFlg=           0 DoJE=T BraDBF=F KetDBF=T FulRan=T
         wScrn=  0.000000 ICntrl=       500 IOpCl=  0 I1Cent=   200000004 NGrid=           0
         NMat0=    1 NMatS0=      1 NMatT0=    0 NMatD0=    1 NMtDS0=    0 NMtDT0=    0
 Petite list used in FoFCou.
 Keep R1 ints in memory in symmetry-blocked form, NReq=3631130.
 Requested convergence on RMS density matrix=1.00D-08 within 128 cycles.
 Requested convergence on MAX density matrix=1.00D-06.
 Requested convergence on             energy=1.00D-06.
 No special actions if energy rises.
 Integral accuracy reduced to 1.0D-05 until final iterations.
 Initial convergence to 1.0D-05 achieved.  Increase integral accuracy.
 SCF Done:  E(RB3LYP) =  -40.5163486790     A.U. after    8 cycles
            NFock=  8  Conv=0.20D-08     -V/T= 2.0114
 Calling FoFJK, ICntrl=      2127 FMM=F ISym2X=1 I1Cent= 0 IOpClX= 0 NMat=1 NMatS=1 NMatT=0.
 ***** Axes restored to original set *****
 -------------------------------------------------------------------
 Center     Atomic                   Forces (Hartrees/Bohr)
 Number     Number              X              Y              Z
 -------------------------------------------------------------------
      1        6           0.000000000    0.000000000    0.000000000
      2        1          -0.000065810    0.000186146    0.000000000
      3        1          -0.000065814   -0.000093072   -0.000161206
      4        1          -0.000065813   -0.000093072    0.000161206
      5        1           0.000197437   -0.000000002    0.000000000
 -------------------------------------------------------------------
 Cartesian Forces:  Max     0.000197437 RMS     0.000101956

 GradGradGradGradGradGradGradGradGradGradGradGradGradGradGradGradGradGrad
 Berny optimization.
 Search for a local minimum.
 Step number   3 out of a maximum of   25
 All quantities printed in internal units (Hartrees-Bohrs-Radians)
 Update second derivatives using D2CorN and points    2    3
 DE= -1.09D-03 DEPred=-7.42D-04 R= 1.47D+00
 TightC=F SS=  1.41D+00  RLast= 7.88D-02 DXNew= 8.4853D-01 2.3633D-01
 Trust test= 1.47D+00 RLast= 7.88D-02 DXMaxT set to 5.05D-01
 The second derivative matrix:
                          X1        Y1        Z1        X2        Y2
           X1           0.87851
           Y1           0.00000   0.87851
           Z1           0.00000   0.00000   0.87851
           X2          -0.13387   0.12127   0.00000   0.11022
           Y2           0.12127  -0.43401   0.00000  -0.12019   0.40769
           Z2           0.00000   0.00000  -0.09100   0.00000   0.00000
           X3          -0.13388  -0.06064  -0.10503   0.00738   0.01205
           Y3          -0.06064  -0.17675  -0.14853  -0.02174   0.00566
           Z3          -0.10503  -0.14853  -0.34825  -0.00136   0.02264
           X4          -0.13388  -0.06064   0.10503   0.00738   0.01205
           Y4          -0.06064  -0.17675   0.14853  -0.02174   0.00566
           Z4           0.10503   0.14853  -0.34825   0.00136  -0.02264
           X5          -0.47688   0.00000   0.00000   0.00890  -0.02517
           Y5           0.00000  -0.09100   0.00000   0.04241   0.01499
           Z5           0.00000   0.00000  -0.09100   0.00000   0.00000
                          Z2        X3        Y3        Z3        X4
           Z2           0.06773
           X3           0.01815   0.11022
           Y3          -0.03254   0.06010   0.15272
           Z3           0.01137   0.10409   0.14721   0.32270
           X4          -0.01815   0.00738   0.00969  -0.01951   0.11022
           Y4           0.03254   0.00969   0.01423  -0.02759   0.06010
           Z4           0.01137   0.01951   0.02759   0.00281  -0.10409
           X5           0.00000   0.00890   0.01259   0.02180   0.00890
           Y5           0.00000  -0.02120   0.00414   0.00627  -0.02120
           Z5           0.00052  -0.03672   0.00627   0.01137   0.03672
                          Y4        Z4        X5        Y5        Z5
           Y4           0.15272
           Z4          -0.14721   0.32270
           X5           0.01259  -0.02180   0.45018
           Y5           0.00414  -0.00627   0.00000   0.06773
           Z5          -0.00627   0.01137   0.00000   0.00000   0.06773
 ITU=  1  1  0
     Eigenvalues ---    0.13441   0.13441   0.16450   0.16450   0.16450
     Eigenvalues ---    0.37008   1.09731   1.09731   1.09731
 RFO step:  Lambda= 0.00000000D+00 EMin= 1.34413700D-01
 ClnCor:  largest displacement from symmetrization is 2.68D-14 for atom     4.
 Quartic linear search produced a step of -0.01436.
 ClnCor:  largest displacement from symmetrization is 1.51D-15 for atom     3.
 B after Tr=     0.000000    0.000000    0.000000
         Rot=    1.000000    0.000000    0.000000    0.000000 Ang=   0.00 deg.
 Variable       Old X    -DE/DX   Delta X   Delta X   Delta X     New X
                                 (Linear)    (Quad)   (Total)
    X1        0.22010   0.00000   0.00000   0.00000   0.00000   0.22010
    Y1        0.58170   0.00000   0.00000   0.00000   0.00000   0.58170
    Z1        0.00000   0.00000   0.00000   0.00000   0.00000   0.00000
    X2        0.91312  -0.00007  -0.00019   0.00000  -0.00019   0.91293
    Y2       -1.37852   0.00019   0.00053   0.00000   0.00053  -1.37799
    Z2        0.00000   0.00000   0.00000   0.00000   0.00000   0.00000
    X3        0.91315  -0.00007  -0.00019   0.00000  -0.00019   0.91296
    Y3        1.56179  -0.00009  -0.00027   0.00000  -0.00027   1.56152
    Z3        1.69759  -0.00016  -0.00046   0.00000  -0.00046   1.69713
    X4        0.91315  -0.00007  -0.00019   0.00000  -0.00019   0.91296
    Y4        1.56179  -0.00009  -0.00027   0.00000  -0.00027   1.56153
    Z4       -1.69759   0.00016   0.00046   0.00000   0.00046  -1.69713
    X5       -1.85901   0.00020   0.00057   0.00000   0.00057  -1.85845
    Y5        0.58172   0.00000   0.00000   0.00000   0.00000   0.58172
    Z5        0.00000   0.00000   0.00000   0.00000   0.00000   0.00000
         Item               Value     Threshold  Converged?
 Maximum Force            0.000197     0.000450     YES
 RMS     Force            0.000102     0.000300     YES
 Maximum Displacement     0.000566     0.001800     YES
 RMS     Displacement     0.000292     0.001200     YES
 Predicted change in Energy=-2.098976D-07
 Optimization completed.
    -- Stationary point found.
 GradGradGradGradGradGradGradGradGradGradGradGradGradGradGradGradGradGrad

                          Input orientation:                          
 ---------------------------------------------------------------------
 Center     Atomic      Atomic             Coordinates (Angstroms)
 Number     Number       Type             X           Y           Z
 ---------------------------------------------------------------------
      1          6           0        0.116473    0.307820    0.000000
      2          1           0        0.483200   -0.729481   -0.000001
      3          1           0        0.483220    0.826464    0.898326
      4          1           0        0.483218    0.826465   -0.898326
      5          1           0       -0.983747    0.307834    0.000001
 ---------------------------------------------------------------------
                    Distance matrix (angstroms):
                    1          2          3          4          5
     1  C    0.000000
     2  H    1.100220   0.000000
     3  H    1.100220   1.796652   0.000000
     4  H    1.100220   1.796652   1.796652   0.000000
     5  H    1.100220   1.796652   1.796652   1.796652   0.000000
 Stoichiometry    CH4
 Framework group  TD[O(C),4C3(H)]
 Deg. of freedom     1
 Full point group                 TD      NOp  24
 Largest Abelian subgroup         D2      NOp   4
 Largest concise Abelian subgroup D2      NOp   4
                         Standard orientation:                         
 ---------------------------------------------------------------------
 Center     Atomic      Atomic             Coordinates (Angstroms)
 Number     Number       Type             X           Y           Z
 ---------------------------------------------------------------------
      1          6           0        0.000000    0.000000    0.000000
      2          1           0        0.635212    0.635212    0.635212
      3          1           0       -0.635212   -0.635212    0.635212
      4          1           0       -0.635212    0.635212   -0.635212
      5          1           0        0.635212   -0.635212   -0.635212
 ---------------------------------------------------------------------
 Rotational constants (GHZ):         155.3475153         155.3475153         155.3475153

 **********************************************************************

            Population analysis using the SCF density.

 **********************************************************************

 Orbital symmetries:
       Occupied  (A1) (A1) (T2) (T2) (T2)
       Virtual   (A1) (T2) (T2) (T2) (T2) (T2) (T2) (T2) (T2) (T2)
                 (A1) (E) (E) (A1) (T1) (T1) (T1) (T2) (T2) (T2)
                 (T2) (T2) (T2) (E) (E) (A1) (T2) (T2) (T2)
 The electronic state is 1-A1.
 Alpha  occ. eigenvalues --  -10.17476  -0.69019  -0.38841  -0.38841  -0.38841
 Alpha virt. eigenvalues --    0.07296   0.14279   0.14279   0.14279   0.41372
 Alpha virt. eigenvalues --    0.41372   0.41372   0.64981   0.64981   0.64981
 Alpha virt. eigenvalues --    0.67672   0.90080   0.90080   1.04145   1.41462
 Alpha virt. eigenvalues --    1.41462   1.41462   1.60985   1.60985   1.60985
 Alpha virt. eigenvalues --    1.92036   1.92036   1.92036   2.23264   2.23264
 Alpha virt. eigenvalues --    2.39082   2.42656   2.42656   2.42656
          Condensed to atoms (all electrons):
               1          2          3          4          5
     1  C    4.503016   0.406203   0.406203   0.406203   0.406203
     2  H    0.406203   0.631890  -0.023350  -0.023350  -0.023350
     3  H    0.406203  -0.023350   0.631890  -0.023350  -0.023350
     4  H    0.406203  -0.023350  -0.023350   0.631890  -0.023350
     5  H    0.406203  -0.023350  -0.023350  -0.023350   0.631890
 Mulliken charges:
               1
     1  C   -0.127828
     2  H    0.031957
     3  H    0.031957
     4  H    0.031957
     5  H    0.031957
 Sum of Mulliken charges =   0.00000
 Mulliken charges with hydrogens summed into heavy atoms:
               1
     1  C    0.000000
 Electronic spatial extent (au):  <R**2>=             35.8681
 Charge=              0.0000 electrons
 Dipole moment (field-independent basis, Debye):
    X=              0.0000    Y=              0.0000    Z=              0.0000  Tot=              0.0000
 Quadrupole moment (field-independent basis, Debye-Ang):
   XX=             -8.3290   YY=             -8.3290   ZZ=             -8.3290
   XY=              0.0000   XZ=              0.0000   YZ=              0.0000
 Traceless Quadrupole moment (field-independent basis, Debye-Ang):
   XX=              0.0000   YY=              0.0000   ZZ=              0.0000
   XY=              0.0000   XZ=              0.0000   YZ=              0.0000
 Octapole moment (field-independent basis, Debye-Ang**2):
  XXX=              0.0000  YYY=              0.0000  ZZZ=              0.0000  XYY=              0.0000
  XXY=              0.0000  XXZ=              0.0000  XZZ=              0.0000  YZZ=              0.0000
  YYZ=              0.0000  XYZ=              0.5889
 Hexadecapole moment (field-independent basis, Debye-Ang**3):
 XXXX=            -16.3793 YYYY=            -16.3793 ZZZZ=            -16.3793 XXXY=              0.0000
 XXXZ=              0.0000 YYYX=              0.0000 YYYZ=              0.0000 ZZZX=              0.0000
 ZZZY=              0.0000 XXYY=             -4.9975 XXZZ=             -4.9975 YYZZ=             -4.9975
 XXYZ=              0.0000 YYXZ=              0.0000 ZZXY=              0.0000
 N-N= 1.331058811951D+01 E-N=-1.196415053217D+02  KE= 4.006038483997D+01
 Symmetry A    KE= 3.440652956340D+01
 Symmetry B1   KE= 1.884618425526D+00
 Symmetry B2   KE= 1.884618425526D+00
 Symmetry B3   KE= 1.884618425526D+00
 1\1\GINC-LSQC03\FOpt\RB3LYP\CC-pVDZ\C1H4\QINGCHUN\29-Jun-2020\0\\# opt
 (z-matrix) freq b3lyp/cc-pvdz\\cc-pVDZ\\0,1\C,0.116472549,0.307820249,
 0.\H,0.4831999526,-0.7294814906,-0.0000008968\H,0.4832195428,0.8264639
 337,0.8983258086\H,0.4832180784,0.8264649692,-0.8983258086\H,-0.983747
 3778,0.3078335837,0.0000008968\\Version=ES64L-G16RevA.03\State=1-A1\HF
 =-40.5163487\RMSD=1.972e-09\RMSF=1.020e-04\Dipole=0.,0.,0.\Quadrupole=
 0.,0.,0.,0.,0.,0.\PG=TD [O(C1),4C3(H1)]\\@


 IT IS A CAPITAL MISTAKE TO THEORIZE BEFORE ONE HAS
 DATA.  INSENSIBLY ONE BEGINS TO TWIST FACTS TO SUIT
 THEORIES RATHER THAN THEORIES TO SUIT FACTS.

                                         -- SHERLOCK HOLMES
 Job cpu time:       0 days  0 hours  0 minutes 14.9 seconds.
 Elapsed time:       0 days  0 hours  0 minutes  4.9 seconds.
 File lengths (MBytes):  RWF=      6 Int=      0 D2E=      0 Chk=      1 Scr=      1
 Normal termination of Gaussian 16 at Mon Jun 29 15:32:22 2020.
 Link1:  Proceeding to internal job step number  2.
 -------------------------------------------------------------------
 #N Geom=AllCheck Guess=TCheck SCRF=Check GenChk RB3LYP/CC-pVDZ Freq
 -------------------------------------------------------------------
 1/10=4,29=7,30=1,38=1,40=1/1,3;
 2/12=2,40=1/2;
 3/5=16,11=2,14=-4,25=1,30=1,70=2,71=2,74=-5,116=1,140=1/1,2,3;
 4/5=101/1;
 5/5=2,38=6,98=1/2;
 8/6=4,10=90,11=11/1;
 11/6=1,8=1,9=11,15=111,16=1/1,2,10;
 10/6=1/2;
 6/7=2,8=2,9=2,10=2,28=1/1;
 7/8=1,10=1,25=1/1,2,3,16;
 1/10=4,30=1/3;
 99//99;
 Structure from the checkpoint file:  "CH4_opt.chk"
 -------
 cc-pVDZ
 -------
 Charge =  0 Multiplicity = 1
 No Z-Matrix found in chk file; cartesian coordinates used.
  C                                                 0.116472549000      0.307820249000      0.000000000000
  H                                                 0.483199952560     -0.729481490594     -0.000000896750
  H                                                 0.483219542803      0.826463933720      0.898325808559
  H                                                 0.483218078428      0.826464969216     -0.898325808559
  H                                                -0.983747377791      0.307833583659      0.000000896750
 Recover connectivity data from disk.

 GradGradGradGradGradGradGradGradGradGradGradGradGradGradGradGradGradGrad
 Berny optimization.
 Initialization pass.
 Trust Radius=3.00D-01 FncErr=1.00D-07 GrdErr=1.00D-07 EigMax=2.50D+02 EigMin=1.00D-04
 Number of steps in this run=      2 maximum allowed number of steps=      2.
 GradGradGradGradGradGradGradGradGradGradGradGradGradGradGradGradGradGrad

                          Input orientation:                          
 ---------------------------------------------------------------------
 Center     Atomic      Atomic             Coordinates (Angstroms)
 Number     Number       Type             X           Y           Z
 ---------------------------------------------------------------------
      1          6           0        0.116473    0.307820    0.000000
      2          1           0        0.483200   -0.729481   -0.000001
      3          1           0        0.483220    0.826464    0.898326
      4          1           0        0.483218    0.826465   -0.898326
      5          1           0       -0.983747    0.307834    0.000001
 ---------------------------------------------------------------------
                    Distance matrix (angstroms):
                    1          2          3          4          5
     1  C    0.000000
     2  H    1.100220   0.000000
     3  H    1.100220   1.796652   0.000000
     4  H    1.100220   1.796652   1.796652   0.000000
     5  H    1.100220   1.796652   1.796652   1.796652   0.000000
 Stoichiometry    CH4
 Framework group  TD[O(C),4C3(H)]
 Deg. of freedom     1
 Full point group                 TD      NOp  24
 Largest Abelian subgroup         D2      NOp   4
 Largest concise Abelian subgroup D2      NOp   4
                         Standard orientation:                         
 ---------------------------------------------------------------------
 Center     Atomic      Atomic             Coordinates (Angstroms)
 Number     Number       Type             X           Y           Z
 ---------------------------------------------------------------------
      1          6           0        0.000000    0.000000    0.000000
      2          1           0        0.635212    0.635212    0.635212
      3          1           0       -0.635212   -0.635212    0.635212
      4          1           0       -0.635212    0.635212   -0.635212
      5          1           0        0.635212   -0.635212   -0.635212
 ---------------------------------------------------------------------
 Rotational constants (GHZ):         155.3475153         155.3475153         155.3475153
 Standard basis: CC-pVDZ (5D, 7F)
 There are    11 symmetry adapted cartesian basis functions of A   symmetry.
 There are     8 symmetry adapted cartesian basis functions of B1  symmetry.
 There are     8 symmetry adapted cartesian basis functions of B2  symmetry.
 There are     8 symmetry adapted cartesian basis functions of B3  symmetry.
 There are    10 symmetry adapted basis functions of A   symmetry.
 There are     8 symmetry adapted basis functions of B1  symmetry.
 There are     8 symmetry adapted basis functions of B2  symmetry.
 There are     8 symmetry adapted basis functions of B3  symmetry.
    34 basis functions,    61 primitive gaussians,    35 cartesian basis functions
     5 alpha electrons        5 beta electrons
       nuclear repulsion energy        13.3105881195 Hartrees.
 NAtoms=    5 NActive=    5 NUniq=    2 SFac= 4.00D+00 NAtFMM=   60 NAOKFM=F Big=F
 Integral buffers will be    131072 words long.
 Raffenetti 2 integral format.
 Two-electron integral symmetry is turned on.
 One-electron integrals computed using PRISM.
 NBasis=    34 RedAO= T EigKep=  2.38D-02  NBF=    10     8     8     8
 NBsUse=    34 1.00D-06 EigRej= -1.00D+00 NBFU=    10     8     8     8
 Initial guess from the checkpoint file:  "CH4_opt.chk"
 B after Tr=     0.000000    0.000000    0.000000
         Rot=    1.000000    0.000000    0.000000    0.000000 Ang=   0.00 deg.
 Initial guess orbital symmetries:
       Occupied  (A1) (A1) (T2) (T2) (T2)
       Virtual   (A1) (T2) (T2) (T2) (T2) (T2) (T2) (T2) (T2) (T2)
                 (A1) (E) (E) (A1) (T1) (T1) (T1) (T2) (T2) (T2)
                 (T2) (T2) (T2) (E) (E) (A1) (T2) (T2) (T2)
 Keep R1 ints in memory in symmetry-blocked form, NReq=3631130.
 Requested convergence on RMS density matrix=1.00D-08 within 128 cycles.
 Requested convergence on MAX density matrix=1.00D-06.
 Requested convergence on             energy=1.00D-06.
 No special actions if energy rises.
 SCF Done:  E(RB3LYP) =  -40.5163486790     A.U. after    1 cycles
            NFock=  1  Conv=0.13D-09     -V/T= 2.0114
 DoSCS=F DFT=T ScalE2(SS,OS)=  1.000000  1.000000
 Range of M.O.s used for correlation:     1    34
 NBasis=    34 NAE=     5 NBE=     5 NFC=     0 NFV=     0
 NROrb=     34 NOA=     5 NOB=     5 NVA=    29 NVB=    29
 Symmetrizing basis deriv contribution to polar:
 IMax=3 JMax=2 DiffMx= 0.00D+00
 G2DrvN: will do     6 centers at a time, making    1 passes.
 Calling FoFCou, ICntrl=  3107 FMM=F I1Cent=   0 AccDes= 0.00D+00.
 End of G2Drv F.D. properties file   721 does not exist.
 End of G2Drv F.D. properties file   722 does not exist.
 End of G2Drv F.D. properties file   788 does not exist.
          IDoAtm=11111
          Differentiating once with respect to electric field.
                with respect to dipole field.
          Differentiating once with respect to nuclear coordinates.
 Keep R1 ints in memory in symmetry-blocked form, NReq=3621780.
          There are     9 degrees of freedom in the 1st order CPHF.  IDoFFX=4 NUNeed=     9.
      9 vectors produced by pass  0 Test12= 1.61D-15 1.11D-08 XBig12= 6.72D+00 1.34D+00.
 AX will form     9 AO Fock derivatives at one time.
      9 vectors produced by pass  1 Test12= 1.61D-15 1.11D-08 XBig12= 1.65D-01 1.69D-01.
      9 vectors produced by pass  2 Test12= 1.61D-15 1.11D-08 XBig12= 5.05D-04 8.60D-03.
      9 vectors produced by pass  3 Test12= 1.61D-15 1.11D-08 XBig12= 1.86D-06 5.74D-04.
      9 vectors produced by pass  4 Test12= 1.61D-15 1.11D-08 XBig12= 9.20D-10 1.36D-05.
      4 vectors produced by pass  5 Test12= 1.61D-15 1.11D-08 XBig12= 4.15D-13 2.97D-07.
 InvSVY:  IOpt=1 It=  1 EMax= 4.44D-16
 Solved reduced A of dimension    49 with     9 vectors.
 Isotropic polarizability for W=    0.000000       13.42 Bohr**3.
 End of Minotr F.D. properties file   721 does not exist.
 End of Minotr F.D. properties file   722 does not exist.
 End of Minotr F.D. properties file   788 does not exist.

 **********************************************************************

            Population analysis using the SCF density.

 **********************************************************************

 Orbital symmetries:
       Occupied  (A1) (A1) (T2) (T2) (T2)
       Virtual   (A1) (T2) (T2) (T2) (T2) (T2) (T2) (T2) (T2) (T2)
                 (A1) (E) (E) (A1) (T1) (T1) (T1) (T2) (T2) (T2)
                 (T2) (T2) (T2) (E) (E) (A1) (T2) (T2) (T2)
 The electronic state is 1-A1.
 Alpha  occ. eigenvalues --  -10.17476  -0.69019  -0.38841  -0.38841  -0.38841
 Alpha virt. eigenvalues --    0.07296   0.14279   0.14279   0.14279   0.41372
 Alpha virt. eigenvalues --    0.41372   0.41372   0.64981   0.64981   0.64981
 Alpha virt. eigenvalues --    0.67672   0.90080   0.90080   1.04145   1.41462
 Alpha virt. eigenvalues --    1.41462   1.41462   1.60985   1.60985   1.60985
 Alpha virt. eigenvalues --    1.92036   1.92036   1.92036   2.23264   2.23264
 Alpha virt. eigenvalues --    2.39082   2.42656   2.42656   2.42656
          Condensed to atoms (all electrons):
               1          2          3          4          5
     1  C    4.503016   0.406203   0.406203   0.406203   0.406203
     2  H    0.406203   0.631890  -0.023350  -0.023350  -0.023350
     3  H    0.406203  -0.023350   0.631890  -0.023350  -0.023350
     4  H    0.406203  -0.023350  -0.023350   0.631890  -0.023350
     5  H    0.406203  -0.023350  -0.023350  -0.023350   0.631890
 Mulliken charges:
               1
     1  C   -0.127828
     2  H    0.031957
     3  H    0.031957
     4  H    0.031957
     5  H    0.031957
 Sum of Mulliken charges =   0.00000
 Mulliken charges with hydrogens summed into heavy atoms:
               1
     1  C    0.000000
 APT charges:
               1
     1  C    0.002073
     2  H   -0.000518
     3  H   -0.000518
     4  H   -0.000518
     5  H   -0.000518
 Sum of APT charges =   0.00000
 APT charges with hydrogens summed into heavy atoms:
               1
     1  C    0.000000
 Electronic spatial extent (au):  <R**2>=             35.8681
 Charge=              0.0000 electrons
 Dipole moment (field-independent basis, Debye):
    X=              0.0000    Y=              0.0000    Z=              0.0000  Tot=              0.0000
 Quadrupole moment (field-independent basis, Debye-Ang):
   XX=             -8.3290   YY=             -8.3290   ZZ=             -8.3290
   XY=              0.0000   XZ=              0.0000   YZ=              0.0000
 Traceless Quadrupole moment (field-independent basis, Debye-Ang):
   XX=              0.0000   YY=              0.0000   ZZ=              0.0000
   XY=              0.0000   XZ=              0.0000   YZ=              0.0000
 Octapole moment (field-independent basis, Debye-Ang**2):
  XXX=              0.0000  YYY=              0.0000  ZZZ=              0.0000  XYY=              0.0000
  XXY=              0.0000  XXZ=              0.0000  XZZ=              0.0000  YZZ=              0.0000
  YYZ=              0.0000  XYZ=              0.5889
 Hexadecapole moment (field-independent basis, Debye-Ang**3):
 XXXX=            -16.3793 YYYY=            -16.3793 ZZZZ=            -16.3793 XXXY=              0.0000
 XXXZ=              0.0000 YYYX=              0.0000 YYYZ=              0.0000 ZZZX=              0.0000
 ZZZY=              0.0000 XXYY=             -4.9975 XXZZ=             -4.9975 YYZZ=             -4.9975
 XXYZ=              0.0000 YYXZ=              0.0000 ZZXY=              0.0000
 N-N= 1.331058811951D+01 E-N=-1.196415052810D+02  KE= 4.006038482465D+01
 Symmetry A    KE= 3.440652956149D+01
 Symmetry B1   KE= 1.884618421054D+00
 Symmetry B2   KE= 1.884618421054D+00
 Symmetry B3   KE= 1.884618421054D+00
  Exact polarizability:  13.415   0.000  13.415   0.000   0.000  13.415
 Approx polarizability:  16.320   0.000  16.320   0.000   0.000  16.320
 Calling FoFJK, ICntrl=    100127 FMM=F ISym2X=1 I1Cent= 0 IOpClX= 0 NMat=1 NMatS=1 NMatT=0.
 Full mass-weighted force constant matrix:
 Low frequencies ---   -0.0008    0.0005    0.0011   49.4279   49.4279   49.4279
 Low frequencies --- 1310.4597 1310.4597 1310.4597
 Diagonal vibrational polarizability:
        0.2445772       0.2445772       0.2445772
 Harmonic frequencies (cm**-1), IR intensities (KM/Mole), Raman scattering
 activities (A**4/AMU), depolarization ratios for plane and unpolarized
 incident light, reduced masses (AMU), force constants (mDyne/A),
 and normal coordinates:
                      1                      2                      3
                     T2                     T2                     T2
 Frequencies --   1310.4597              1310.4597              1310.4597
 Red. masses --      1.1791                 1.1791                 1.1791
 Frc consts  --      1.1930                 1.1930                 1.1930
 IR Inten    --     11.9669                11.9669                11.9669
  Atom  AN      X      Y      Z        X      Y      Z        X      Y      Z
     1   6    -0.04  -0.08  -0.08     0.00   0.09  -0.09    -0.12   0.03   0.03
     2   1    -0.19   0.02   0.01     0.01  -0.43   0.42     0.46  -0.24  -0.26
     3   1     0.12   0.33   0.48     0.34  -0.10   0.10     0.34  -0.36   0.07
     4   1     0.13   0.48   0.32    -0.32  -0.09   0.09     0.36   0.08  -0.36
     5   1     0.43   0.17   0.17     0.01  -0.42   0.43     0.24   0.19   0.18
                      4                      5                      6
                      E                      E                     A1
 Frequencies --   1531.2627              1531.2627              3024.5530
 Red. masses --      1.0078                 1.0078                 1.0078
 Frc consts  --      1.3923                 1.3923                 5.4320
 IR Inten    --      0.0000                 0.0000                 0.0000
  Atom  AN      X      Y      Z        X      Y      Z        X      Y      Z
     1   6     0.00   0.00   0.00     0.00   0.00   0.00     0.00   0.00   0.00
     2   1     0.41  -0.21  -0.20     0.00  -0.35   0.36     0.29   0.29   0.29
     3   1    -0.41   0.21  -0.20     0.00   0.35   0.36    -0.29  -0.29   0.29
     4   1    -0.41  -0.21   0.20     0.00  -0.35  -0.36    -0.29   0.29  -0.29
     5   1     0.41   0.21   0.20     0.00   0.35  -0.36     0.29  -0.29  -0.29
                      7                      8                      9
                     T2                     T2                     T2
 Frequencies --   3145.9653              3145.9653              3145.9653
 Red. masses --      1.1016                 1.1016                 1.1016
 Frc consts  --      6.4235                 6.4235                 6.4235
 IR Inten    --     20.9806                20.9806                20.9806
  Atom  AN      X      Y      Z        X      Y      Z        X      Y      Z
     1   6     0.09   0.00   0.00     0.00  -0.06   0.07     0.00  -0.07  -0.06
     2   1    -0.27  -0.29  -0.29     0.00  -0.02   0.01     0.42   0.41   0.41
     3   1    -0.27  -0.29   0.29     0.42   0.40  -0.40     0.01   0.00  -0.02
     4   1    -0.28   0.29  -0.29    -0.41   0.40  -0.40     0.00  -0.02  -0.01
     5   1    -0.28   0.30   0.30     0.00  -0.02   0.01    -0.41   0.40   0.40

 -------------------
 - Thermochemistry -
 -------------------
 Temperature   298.150 Kelvin.  Pressure   1.00000 Atm.
 Atom     1 has atomic number  6 and mass  12.00000
 Atom     2 has atomic number  1 and mass   1.00783
 Atom     3 has atomic number  1 and mass   1.00783
 Atom     4 has atomic number  1 and mass   1.00783
 Atom     5 has atomic number  1 and mass   1.00783
 Molecular mass:    16.03130 amu.
 Principal axes and moments of inertia in atomic units:
                           1         2         3
     Eigenvalues --    11.61744  11.61744  11.61744
           X            0.97862   0.00000   0.20566
           Y           -0.20566   0.00000   0.97862
           Z            0.00000   1.00000   0.00000
 This molecule is a spherical top.
 Rotational symmetry number 12.
 Rotational temperatures (Kelvin)      7.45551     7.45551     7.45551
 Rotational constants (GHZ):         155.34752   155.34752   155.34752
 Zero-point vibrational energy     116374.8 (Joules/Mol)
                                   27.81425 (Kcal/Mol)
 Vibrational temperatures:   1885.46  1885.46  1885.46  2203.15  2203.15
          (Kelvin)           4351.66  4526.34  4526.34  4526.34
 
 Zero-point correction=                           0.044325 (Hartree/Particle)
 Thermal correction to Energy=                    0.047198
 Thermal correction to Enthalpy=                  0.048142
 Thermal correction to Gibbs Free Energy=         0.026982
 Sum of electronic and zero-point Energies=            -40.472024
 Sum of electronic and thermal Energies=               -40.469150
 Sum of electronic and thermal Enthalpies=             -40.468206
 Sum of electronic and thermal Free Energies=          -40.489367
 
                     E (Thermal)             CV                S
                      KCal/Mol        Cal/Mol-Kelvin    Cal/Mol-Kelvin
 Total                   29.617              6.525             44.536
 Electronic               0.000              0.000              0.000
 Translational            0.889              2.981             34.261
 Rotational               0.889              2.981             10.175
 Vibrational             27.840              0.564              0.099
                       Q            Log10(Q)             Ln(Q)
 Total Bot       0.388259D-12        -12.410878        -28.577103
 Total V=0       0.948665D+08          7.977113         18.367981
 Vib (Bot)       0.411988D-20        -20.385115        -46.938463
 Vib (V=0)       0.100664D+01          0.002875          0.006621
 Electronic      0.100000D+01          0.000000          0.000000
 Translational   0.252294D+07          6.401907         14.740936
 Rotational      0.373534D+02          1.572330          3.620424
 ***** Axes restored to original set *****
 -------------------------------------------------------------------
 Center     Atomic                   Forces (Hartrees/Bohr)
 Number     Number              X              Y              Z
 -------------------------------------------------------------------
      1        6           0.000000000    0.000000000    0.000000000
      2        1          -0.000065810    0.000186147    0.000000000
      3        1          -0.000065814   -0.000093072   -0.000161207
      4        1          -0.000065813   -0.000093072    0.000161207
      5        1           0.000197437   -0.000000002    0.000000000
 -------------------------------------------------------------------
 Cartesian Forces:  Max     0.000197437 RMS     0.000101956

 GradGradGradGradGradGradGradGradGradGradGradGradGradGradGradGradGradGrad
 Berny optimization.
 Search for a local minimum.
 Step number   1 out of a maximum of    2
 All quantities printed in internal units (Hartrees-Bohrs-Radians)
 Second derivative matrix not updated -- analytic derivatives used.
 The second derivative matrix:
                          X1        Y1        Z1        X2        Y2
           X1           0.54122
           Y1           0.00000   0.54122
           Z1           0.00000   0.00000   0.54122
           X2          -0.07389   0.08685   0.00000   0.07641
           Y2           0.08685  -0.28884   0.00000  -0.09470   0.31079
           Z2           0.00000   0.00000  -0.04319   0.00000   0.00000
           X3          -0.07389  -0.04343  -0.07522   0.00286   0.00457
           Y3          -0.04343  -0.10460  -0.10637  -0.01119  -0.01197
           Z3          -0.07522  -0.10637  -0.22743   0.00119   0.00160
           X4          -0.07389  -0.04343   0.07522   0.00286   0.00457
           Y4          -0.04343  -0.10460   0.10637  -0.01119  -0.01197
           Z4           0.07522   0.10637  -0.22743  -0.00119  -0.00160
           X5          -0.31955   0.00000   0.00000  -0.00824  -0.00128
           Y5           0.00000  -0.04319   0.00000   0.03023   0.00199
           Z5           0.00000   0.00000  -0.04319   0.00000   0.00000
                          Z2        X3        Y3        Z3        X4
           Z2           0.04293
           X3           0.01029   0.07642
           Y3          -0.02413   0.04735   0.10990
           Z3           0.00104   0.08202   0.11598   0.24383
           X4          -0.01029   0.00286   0.00663  -0.00910   0.07642
           Y4           0.02413   0.00663   0.00755  -0.01287   0.04735
           Z4           0.00104   0.00910   0.01287  -0.01848  -0.08202
           X5           0.00000  -0.00824   0.00064   0.00111  -0.00824
           Y5           0.00000  -0.01512  -0.00087   0.00165  -0.01512
           Z5          -0.00183  -0.02618   0.00165   0.00104   0.02618
                          Y4        Z4        X5        Y5        Z5
           Y4           0.10990
           Z4          -0.11598   0.24383
           X5           0.00064  -0.00111   0.34427
           Y5          -0.00087  -0.00165   0.00000   0.04293
           Z5          -0.00165   0.00104   0.00000   0.00000   0.04293
 ITU=  0
     Eigenvalues ---    0.08943   0.08943   0.10725   0.10725   0.10725
     Eigenvalues ---    0.34890   0.71778   0.71778   0.71778
 Angle between quadratic step and forces=   0.00 degrees.
 ClnCor:  largest displacement from symmetrization is 2.80D-12 for atom     4.
 Linear search not attempted -- first point.
 ClnCor:  largest displacement from symmetrization is 1.20D-15 for atom     2.
 B after Tr=     0.000000    0.000000    0.000000
         Rot=    1.000000    0.000000    0.000000    0.000000 Ang=   0.00 deg.
 Variable       Old X    -DE/DX   Delta X   Delta X   Delta X     New X
                                 (Linear)    (Quad)   (Total)
    X1        0.22010   0.00000   0.00000   0.00000   0.00000   0.22010
    Y1        0.58170   0.00000   0.00000   0.00000   0.00000   0.58170
    Z1        0.00000   0.00000   0.00000   0.00000   0.00000   0.00000
    X2        0.91312  -0.00007   0.00000  -0.00019  -0.00019   0.91293
    Y2       -1.37852   0.00019   0.00000   0.00053   0.00053  -1.37799
    Z2        0.00000   0.00000   0.00000   0.00000   0.00000   0.00000
    X3        0.91315  -0.00007   0.00000  -0.00019  -0.00019   0.91296
    Y3        1.56179  -0.00009   0.00000  -0.00027  -0.00027   1.56152
    Z3        1.69759  -0.00016   0.00000  -0.00046  -0.00046   1.69713
    X4        0.91315  -0.00007   0.00000  -0.00019  -0.00019   0.91296
    Y4        1.56179  -0.00009   0.00000  -0.00027  -0.00027   1.56153
    Z4       -1.69759   0.00016   0.00000   0.00046   0.00046  -1.69713
    X5       -1.85901   0.00020   0.00000   0.00057   0.00057  -1.85845
    Y5        0.58172   0.00000   0.00000   0.00000   0.00000   0.58172
    Z5        0.00000   0.00000   0.00000   0.00000   0.00000   0.00000
         Item               Value     Threshold  Converged?
 Maximum Force            0.000197     0.000450     YES
 RMS     Force            0.000102     0.000300     YES
 Maximum Displacement     0.000566     0.001800     YES
 RMS     Displacement     0.000292     0.001200     YES
 Predicted change in Energy=-2.234551D-07
 Optimization completed.
    -- Stationary point found.
 GradGradGradGradGradGradGradGradGradGradGradGradGradGradGradGradGradGrad

 Dipole is zero, so no output in dipole orientation.

 ----------------------------------------------------------------------

 Electric dipole moment (input orientation):
 (Debye = 10**-18 statcoulomb cm , SI units = C m)
                  (au)            (Debye)         (10**-30 SI)
   Tot        0.000000D+00      0.000000D+00      0.000000D+00
   x          0.000000D+00      0.000000D+00      0.000000D+00
   y          0.000000D+00      0.000000D+00      0.000000D+00
   z          0.000000D+00      0.000000D+00      0.000000D+00

 Dipole polarizability, Alpha (input orientation).
 (esu units = cm**3 , SI units = C**2 m**2 J**-1)
 Alpha(0;0):
               (au)            (10**-24 esu)      (10**-40 SI)
   iso        0.134151D+02      0.198791D+01      0.221185D+01
   aniso      0.000000D+00      0.000000D+00      0.000000D+00
   xx         0.134151D+02      0.198791D+01      0.221185D+01
   yx         0.000000D+00      0.000000D+00      0.000000D+00
   yy         0.134151D+02      0.198791D+01      0.221185D+01
   zx         0.000000D+00      0.000000D+00      0.000000D+00
   zy         0.000000D+00      0.000000D+00      0.000000D+00
   zz         0.134151D+02      0.198791D+01      0.221185D+01

 ----------------------------------------------------------------------
 1\1\GINC-LSQC03\Freq\RB3LYP\CC-pVDZ\C1H4\QINGCHUN\29-Jun-2020\0\\#N Ge
 om=AllCheck Guess=TCheck SCRF=Check GenChk RB3LYP/CC-pVDZ Freq\\cc-pVD
 Z\\0,1\C,0.116472549,0.307820249,0.\H,0.4831999526,-0.7294814906,-0.00
 00008968\H,0.4832195428,0.8264639337,0.8983258086\H,0.4832180784,0.826
 4649692,-0.8983258086\H,-0.9837473778,0.3078335837,0.0000008968\\Versi
 on=ES64L-G16RevA.03\State=1-A1\HF=-40.5163487\RMSD=1.297e-10\RMSF=1.02
 0e-04\ZeroPoint=0.0443248\Thermal=0.0471982\Dipole=0.,0.,0.\DipoleDeri
 v=0.0020725,0.,0.,0.,0.0020725,0.,0.,0.,0.0020725,0.0429827,0.0615155,
 0.,0.0615155,-0.109268,-0.0000002,0.,-0.0000002,0.0647309,0.0429804,-0
 .030759,-0.0532766,-0.030759,0.0212324,-0.0753424,-0.0532766,-0.075342
 4,-0.0657672,0.0429806,-0.0307589,0.0532764,-0.0307589,0.0212322,0.075
 3425,0.0532764,0.0753425,-0.0657672,-0.1310162,0.0000024,0.0000002,0.0
 000024,0.0647309,0.,0.0000002,0.,0.0647309\Polar=13.4150828,0.,13.4150
 828,0.,0.,13.4150828\Quadrupole=0.,0.,0.,0.,0.,0.\PG=TD [O(C1),4C3(H1)
 ]\NImag=0\\0.54122458,0.,0.54122458,0.,0.,0.54122458,-0.07389105,0.086
 84848,0.00000008,0.07641477,0.08684848,-0.28884073,-0.00000021,-0.0946
 9911,0.31079474,0.00000008,-0.00000021,-0.04318666,-0.00000008,0.00000
 023,0.04293486,-0.07389433,-0.04342596,-0.07521669,0.00285956,0.004565
 07,0.01028704,0.07641834,-0.04342596,-0.10459847,-0.10636941,-0.011191
 92,-0.01197373,-0.02413498,0.04735143,0.10989798,-0.07521669,-0.106369
 41,-0.22742563,0.00119005,0.00159615,0.00103886,0.08201587,0.11598462,
 0.24382805,-0.07389408,-0.04342587,0.07521639,0.00285954,0.00456508,-0
 .01028703,0.00285979,0.00662653,-0.00909746,0.07641808,-0.04342587,-0.
 10459872,0.10636962,-0.01119188,-0.01197376,0.02413498,0.00662650,0.00
 754508,-0.01286540,0.04735134,0.10989824,0.07521639,0.10636962,-0.2274
 2563,-0.00119006,-0.00159617,0.00103891,0.00909744,0.01286541,-0.01848
 019,-0.08201554,-0.11598485,0.24382805,-0.31954512,0.00000335,0.000000
 23,-0.00824282,-0.00127952,0.,-0.00824337,0.00063991,0.00110824,-0.008
 24333,0.00063991,-0.00110822,0.34427464,0.00000335,-0.04318666,0.,0.03
 023442,0.00199349,-0.00000002,-0.01511704,-0.00087085,0.00165403,-0.01
 511708,-0.00087085,-0.00165401,-0.00000365,0.04293486,0.00000023,0.,-0
 .04318666,0.00000002,0.,-0.00182598,-0.02618365,0.00165435,0.00103891,
 0.02618365,-0.00165435,0.00103886,-0.00000025,0.,0.04293486\\0.,0.,0.,
 0.00006581,-0.00018615,0.,0.00006581,0.00009307,0.00016121,0.00006581,
 0.00009307,-0.00016121,-0.00019744,0.,0.\\\@


 WE MIGHT AS WELL ATTEMPT TO INTRODUCE A NEW PLANET 
 INTO THE SOLAR SYSTEM, OR TO ANNIHILATE ONE ALREADYIN EXISTENCE, 
 AS TO CREATE OR DESTROY A PARTICLE OF HYDROGEN.
 ALL THE CHANGES WE CAN PRODUCE CONSIST IN SEPARATING PARTICLES
 THAT ARE IN A STATE OF ... COMBINATION, AND JOINING 
 THOSE THAT WERE PREVIOUSLY AT A DISTANCE.

                                    -- JOHN DALTON, 1810
 Job cpu time:       0 days  0 hours  0 minutes 15.0 seconds.
 Elapsed time:       0 days  0 hours  0 minutes  6.8 seconds.
 File lengths (MBytes):  RWF=      6 Int=      0 D2E=      0 Chk=      1 Scr=      1
 Normal termination of Gaussian 16 at Mon Jun 29 15:32:29 2020.
